 cl2co-wavefunction
GAUSSIAN            192 MOL ORBITALS    372 PRIMITIVES        4 NUCLEI
  O    1    (CENTRE  1)   0.00000000  0.00000000  1.29143317  CHARGE =  8.0
  C    2    (CENTRE  2)   0.00000000  0.00000000 -0.93482295  CHARGE =  6.0
  Cl   3    (CENTRE  3)   0.00000000 -2.73418805 -2.77752892  CHARGE = 17.0
  Cl   4    (CENTRE  4)   0.01889726  2.73418805 -2.77752892  CHARGE = 17.0
CENTRE ASSIGNMENTS    1  1  1  1  1  1  1  1  1  1  1  1  1  1  1  1  1  1  1  1
CENTRE ASSIGNMENTS    1  1  1  1  1  1  1  1  1  1  1  1  1  1  1  1  1  1  1  1
CENTRE ASSIGNMENTS    1  1  1  1  1  1  1  1  1  1  1  1  1  1  1  1  1  1  1  1
CENTRE ASSIGNMENTS    1  1  1  1  1  1  1  1  1  1  1  1  2  2  2  2  2  2  2  2
CENTRE ASSIGNMENTS    2  2  2  2  2  2  2  2  2  2  2  2  2  2  2  2  2  2  2  2
CENTRE ASSIGNMENTS    2  2  2  2  2  2  2  2  2  2  2  2  2  2  2  2  2  2  2  2
CENTRE ASSIGNMENTS    2  2  2  2  2  2  2  2  2  2  2  2  2  2  2  2  2  2  2  2
CENTRE ASSIGNMENTS    2  2  2  2  3  3  3  3  3  3  3  3  3  3  3  3  3  3  3  3
CENTRE ASSIGNMENTS    3  3  3  3  3  3  3  3  3  3  3  3  3  3  3  3  3  3  3  3
CENTRE ASSIGNMENTS    3  3  3  3  3  3  3  3  3  3  3  3  3  3  3  3  3  3  3  3
CENTRE ASSIGNMENTS    3  3  3  3  3  3  3  3  3  3  3  3  3  3  3  3  3  3  3  3
CENTRE ASSIGNMENTS    3  3  3  3  3  3  3  3  3  3  3  3  3  3  3  3  3  3  3  3
CENTRE ASSIGNMENTS    3  3  3  3  3  3  3  3  3  3  3  3  3  3  3  3  3  3  4  4
CENTRE ASSIGNMENTS    4  4  4  4  4  4  4  4  4  4  4  4  4  4  4  4  4  4  4  4
CENTRE ASSIGNMENTS    4  4  4  4  4  4  4  4  4  4  4  4  4  4  4  4  4  4  4  4
CENTRE ASSIGNMENTS    4  4  4  4  4  4  4  4  4  4  4  4  4  4  4  4  4  4  4  4
CENTRE ASSIGNMENTS    4  4  4  4  4  4  4  4  4  4  4  4  4  4  4  4  4  4  4  4
CENTRE ASSIGNMENTS    4  4  4  4  4  4  4  4  4  4  4  4  4  4  4  4  4  4  4  4
CENTRE ASSIGNMENTS    4  4  4  4  4  4  4  4  4  4  4  4
TYPE ASSIGNMENTS      1  1  1  1  1  1  1  1  1  1  1  1  1  1  1  1  2  2  2  3
TYPE ASSIGNMENTS      3  3  4  4  4  2  3  4  2  3  4  2  3  4  5  6  7  8  9 10
TYPE ASSIGNMENTS      5  6  7  8  9 10  5  6  7  8  9 10 11 12 13 17 14 15 18 19
TYPE ASSIGNMENTS     16 20 11 12 13 17 14 15 18 19 16 20  1  1  1  1  1  1  1  1
TYPE ASSIGNMENTS      1  1  1  1  1  1  1  1  2  2  2  3  3  3  4  4  4  2  3  4
TYPE ASSIGNMENTS      2  3  4  2  3  4  5  6  7  8  9 10  5  6  7  8  9 10  5  6
TYPE ASSIGNMENTS      7  8  9 10 11 12 13 17 14 15 18 19 16 20 11 12 13 17 14 15
TYPE ASSIGNMENTS     18 19 16 20  1  1  1  1  1  1  1  1  1  1  1  1  1  1  1  1
TYPE ASSIGNMENTS      1  1  1  1  1  1  1  1  1  1  1  1  1  1  1  2  2  2  2  2
TYPE ASSIGNMENTS      2  3  3  3  3  3  3  4  4  4  4  4  4  2  2  2  2  2  2  3
TYPE ASSIGNMENTS      3  3  3  3  3  4  4  4  4  4  4  2  3  4  2  3  4  2  3  4
TYPE ASSIGNMENTS      5  6  7  8  9 10  5  6  7  8  9 10  5  6  7  8  9 10 11 12
TYPE ASSIGNMENTS     13 17 14 15 18 19 16 20 11 12 13 17 14 15 18 19 16 20  1  1
TYPE ASSIGNMENTS      1  1  1  1  1  1  1  1  1  1  1  1  1  1  1  1  1  1  1  1
TYPE ASSIGNMENTS      1  1  1  1  1  1  1  1  1  2  2  2  2  2  2  3  3  3  3  3
TYPE ASSIGNMENTS      3  4  4  4  4  4  4  2  2  2  2  2  2  3  3  3  3  3  3  4
TYPE ASSIGNMENTS      4  4  4  4  4  2  3  4  2  3  4  2  3  4  5  6  7  8  9 10
TYPE ASSIGNMENTS      5  6  7  8  9 10  5  6  7  8  9 10 11 12 13 17 14 15 18 19
TYPE ASSIGNMENTS     16 20 11 12 13 17 14 15 18 19 16 20
EXPONENTS  0.1533000D+05 0.2299000D+04 0.5224000D+03 0.1473000D+03 0.4755000D+02
EXPONENTS  0.1676000D+02 0.6207000D+01 0.5224000D+03 0.1473000D+03 0.4755000D+02
EXPONENTS  0.1676000D+02 0.6207000D+01 0.6882000D+00 0.1752000D+01 0.2384000D+00
EXPONENTS  0.7376000D-01 0.3446000D+02 0.7749000D+01 0.2280000D+01 0.3446000D+02
EXPONENTS  0.7749000D+01 0.2280000D+01 0.3446000D+02 0.7749000D+01 0.2280000D+01
EXPONENTS  0.7156000D+00 0.7156000D+00 0.7156000D+00 0.2140000D+00 0.2140000D+00
EXPONENTS  0.2140000D+00 0.5974000D-01 0.5974000D-01 0.5974000D-01 0.2314000D+01
EXPONENTS  0.2314000D+01 0.2314000D+01 0.2314000D+01 0.2314000D+01 0.2314000D+01
EXPONENTS  0.6450000D+00 0.6450000D+00 0.6450000D+00 0.6450000D+00 0.6450000D+00
EXPONENTS  0.6450000D+00 0.2140000D+00 0.2140000D+00 0.2140000D+00 0.2140000D+00
EXPONENTS  0.2140000D+00 0.2140000D+00 0.1428000D+01 0.1428000D+01 0.1428000D+01
EXPONENTS  0.1428000D+01 0.1428000D+01 0.1428000D+01 0.1428000D+01 0.1428000D+01
EXPONENTS  0.1428000D+01 0.1428000D+01 0.5000000D+00 0.5000000D+00 0.5000000D+00
EXPONENTS  0.5000000D+00 0.5000000D+00 0.5000000D+00 0.5000000D+00 0.5000000D+00
EXPONENTS  0.5000000D+00 0.5000000D+00 0.8236000D+04 0.1235000D+04 0.2808000D+03
EXPONENTS  0.7927000D+02 0.2559000D+02 0.8997000D+01 0.3319000D+01 0.2808000D+03
EXPONENTS  0.7927000D+02 0.2559000D+02 0.8997000D+01 0.3319000D+01 0.3643000D+00
EXPONENTS  0.9059000D+00 0.1285000D+00 0.4402000D-01 0.1871000D+02 0.4133000D+01
EXPONENTS  0.1200000D+01 0.1871000D+02 0.4133000D+01 0.1200000D+01 0.1871000D+02
EXPONENTS  0.4133000D+01 0.1200000D+01 0.3827000D+00 0.3827000D+00 0.3827000D+00
EXPONENTS  0.1209000D+00 0.1209000D+00 0.1209000D+00 0.3569000D-01 0.3569000D-01
EXPONENTS  0.3569000D-01 0.1097000D+01 0.1097000D+01 0.1097000D+01 0.1097000D+01
EXPONENTS  0.1097000D+01 0.1097000D+01 0.3180000D+00 0.3180000D+00 0.3180000D+00
EXPONENTS  0.3180000D+00 0.3180000D+00 0.3180000D+00 0.1000000D+00 0.1000000D+00
EXPONENTS  0.1000000D+00 0.1000000D+00 0.1000000D+00 0.1000000D+00 0.7610000D+00
EXPONENTS  0.7610000D+00 0.7610000D+00 0.7610000D+00 0.7610000D+00 0.7610000D+00
EXPONENTS  0.7610000D+00 0.7610000D+00 0.7610000D+00 0.7610000D+00 0.2680000D+00
EXPONENTS  0.2680000D+00 0.2680000D+00 0.2680000D+00 0.2680000D+00 0.2680000D+00
EXPONENTS  0.2680000D+00 0.2680000D+00 0.2680000D+00 0.2680000D+00 0.4561000D+06
EXPONENTS  0.6833000D+05 0.1555000D+05 0.4405000D+04 0.1439000D+04 0.5204000D+03
EXPONENTS  0.2031000D+03 0.8396000D+02 0.3620000D+02 0.1583000D+02 0.6334000D+01
EXPONENTS  0.4405000D+04 0.1439000D+04 0.5204000D+03 0.2031000D+03 0.8396000D+02
EXPONENTS  0.3620000D+02 0.1583000D+02 0.6334000D+01 0.2694000D+01 0.1439000D+04
EXPONENTS  0.2031000D+03 0.8396000D+02 0.3620000D+02 0.1583000D+02 0.6334000D+01
EXPONENTS  0.2694000D+01 0.4313000D+00 0.9768000D+00 0.1625000D+00 0.5910000D-01
EXPONENTS  0.6633000D+03 0.1568000D+03 0.4998000D+02 0.1842000D+02 0.7240000D+01
EXPONENTS  0.2922000D+01 0.6633000D+03 0.1568000D+03 0.4998000D+02 0.1842000D+02
EXPONENTS  0.7240000D+01 0.2922000D+01 0.6633000D+03 0.1568000D+03 0.4998000D+02
EXPONENTS  0.1842000D+02 0.7240000D+01 0.2922000D+01 0.1568000D+03 0.4998000D+02
EXPONENTS  0.1842000D+02 0.7240000D+01 0.2922000D+01 0.3818000D+00 0.1568000D+03
EXPONENTS  0.4998000D+02 0.1842000D+02 0.7240000D+01 0.2922000D+01 0.3818000D+00
EXPONENTS  0.1568000D+03 0.4998000D+02 0.1842000D+02 0.7240000D+01 0.2922000D+01
EXPONENTS  0.3818000D+00 0.1022000D+01 0.1022000D+01 0.1022000D+01 0.1301000D+00
EXPONENTS  0.1301000D+00 0.1301000D+00 0.4190000D-01 0.4190000D-01 0.4190000D-01
EXPONENTS  0.1046000D+01 0.1046000D+01 0.1046000D+01 0.1046000D+01 0.1046000D+01
EXPONENTS  0.1046000D+01 0.3440000D+00 0.3440000D+00 0.3440000D+00 0.3440000D+00
EXPONENTS  0.3440000D+00 0.3440000D+00 0.1350000D+00 0.1350000D+00 0.1350000D+00
EXPONENTS  0.1350000D+00 0.1350000D+00 0.1350000D+00 0.7060000D+00 0.7060000D+00
EXPONENTS  0.7060000D+00 0.7060000D+00 0.7060000D+00 0.7060000D+00 0.7060000D+00
EXPONENTS  0.7060000D+00 0.7060000D+00 0.7060000D+00 0.3120000D+00 0.3120000D+00
EXPONENTS  0.3120000D+00 0.3120000D+00 0.3120000D+00 0.3120000D+00 0.3120000D+00
EXPONENTS  0.3120000D+00 0.3120000D+00 0.3120000D+00 0.4561000D+06 0.6833000D+05
EXPONENTS  0.1555000D+05 0.4405000D+04 0.1439000D+04 0.5204000D+03 0.2031000D+03
EXPONENTS  0.8396000D+02 0.3620000D+02 0.1583000D+02 0.6334000D+01 0.4405000D+04
EXPONENTS  0.1439000D+04 0.5204000D+03 0.2031000D+03 0.8396000D+02 0.3620000D+02
EXPONENTS  0.1583000D+02 0.6334000D+01 0.2694000D+01 0.1439000D+04 0.2031000D+03
EXPONENTS  0.8396000D+02 0.3620000D+02 0.1583000D+02 0.6334000D+01 0.2694000D+01
EXPONENTS  0.4313000D+00 0.9768000D+00 0.1625000D+00 0.5910000D-01 0.6633000D+03
EXPONENTS  0.1568000D+03 0.4998000D+02 0.1842000D+02 0.7240000D+01 0.2922000D+01
EXPONENTS  0.6633000D+03 0.1568000D+03 0.4998000D+02 0.1842000D+02 0.7240000D+01
EXPONENTS  0.2922000D+01 0.6633000D+03 0.1568000D+03 0.4998000D+02 0.1842000D+02
EXPONENTS  0.7240000D+01 0.2922000D+01 0.1568000D+03 0.4998000D+02 0.1842000D+02
EXPONENTS  0.7240000D+01 0.2922000D+01 0.3818000D+00 0.1568000D+03 0.4998000D+02
EXPONENTS  0.1842000D+02 0.7240000D+01 0.2922000D+01 0.3818000D+00 0.1568000D+03
EXPONENTS  0.4998000D+02 0.1842000D+02 0.7240000D+01 0.2922000D+01 0.3818000D+00
EXPONENTS  0.1022000D+01 0.1022000D+01 0.1022000D+01 0.1301000D+00 0.1301000D+00
EXPONENTS  0.1301000D+00 0.4190000D-01 0.4190000D-01 0.4190000D-01 0.1046000D+01
EXPONENTS  0.1046000D+01 0.1046000D+01 0.1046000D+01 0.1046000D+01 0.1046000D+01
EXPONENTS  0.3440000D+00 0.3440000D+00 0.3440000D+00 0.3440000D+00 0.3440000D+00
EXPONENTS  0.3440000D+00 0.1350000D+00 0.1350000D+00 0.1350000D+00 0.1350000D+00
EXPONENTS  0.1350000D+00 0.1350000D+00 0.7060000D+00 0.7060000D+00 0.7060000D+00
EXPONENTS  0.7060000D+00 0.7060000D+00 0.7060000D+00 0.7060000D+00 0.7060000D+00
EXPONENTS  0.7060000D+00 0.7060000D+00 0.3120000D+00 0.3120000D+00 0.3120000D+00
EXPONENTS  0.3120000D+00 0.3120000D+00 0.3120000D+00 0.3120000D+00 0.3120000D+00
EXPONENTS  0.3120000D+00 0.3120000D+00
MO    1     MO 0.0        OCC NO =    2.0000387  ORB. ENERGY =    0.000000
 -0.11046760D-05 -0.20589344D-05 -0.34912127D-05 -0.52835791D-05 -0.65908485D-05
 -0.56559285D-05 -0.21659202D-05 -0.19838213D-09 -0.21285101D-08 -0.78460890D-08
 -0.22941504D-07 -0.27645628D-07  0.33302088D-07 -0.10477736D-06 -0.11773416D-07
 -0.47546964D-07 -0.30280876D-05 -0.29362264D-05 -0.19807610D-05 -0.87626673D-03
 -0.84968397D-03 -0.57319179D-03 -0.28867609D-06 -0.27991870D-06 -0.18883150D-06
 -0.32549338D-05 -0.94198291D-03 -0.13010889D-06 -0.26256511D-05 -0.75997335D-03
 -0.10697606D-06 -0.68543539D-07 -0.19846349D-04 -0.19373703D-08 -0.50531660D-07
  0.63766938D-07 -0.13235279D-07 -0.72290833D-05 -0.69221993D-06 -0.20042991D-03
  0.29315900D-07 -0.62480748D-07  0.33164848D-07  0.43792477D-05 -0.24432590D-06
 -0.70668160D-04 -0.77672633D-08 -0.84901689D-08  0.16257432D-07  0.13223405D-05
  0.38749241D-06  0.11215487D-03  0.76848713D-06 -0.14729878D-03 -0.88659984D-08
 -0.30639470D-05  0.22239398D-03  0.30830693D-07  0.75848561D-06  0.21950235D-03
 -0.42326978D-08  0.81659348D-05 -0.69274019D-06 -0.10266873D-04 -0.44580724D-08
  0.12791065D-05 -0.20048005D-03 -0.24654003D-07  0.79911405D-06  0.23128067D-03
  0.38028220D-07 -0.50211731D-05  0.68276287D-06  0.12728075D-05  0.21512181D-05
  0.32336821D-05  0.39719993D-05  0.33522272D-05  0.12605250D-05  0.77281659D-09
  0.57763252D-08  0.21587446D-07  0.60225613D-07  0.80685718D-07 -0.95274788D-07
  0.19586796D-07 -0.12015422D-08 -0.16570161D-07  0.38316871D-05  0.35924502D-05
  0.25580386D-05  0.11087655D-02  0.10395381D-02  0.74021308D-03 -0.22137641D-06
 -0.20755445D-06 -0.14779113D-06  0.49756587D-06  0.14393672D-03 -0.17626101D-06
  0.24763242D-06  0.71702456D-04  0.45076138D-07 -0.30214081D-07 -0.87400975D-05
  0.35185805D-08  0.12212934D-07 -0.14694149D-06  0.13472855D-06 -0.46228703D-06
  0.63568562D-06  0.18403702D-03 -0.19670300D-07  0.62509224D-07 -0.42838924D-07
 -0.12911037D-05  0.25727304D-06  0.74518015D-04  0.53066952D-09 -0.19960159D-07
  0.19429490D-07  0.76221259D-07  0.18880126D-06  0.54664820D-04  0.12852822D-06
  0.25495163D-03 -0.30904565D-07  0.23857602D-05  0.37237927D-04  0.46319745D-07
 -0.27713449D-05 -0.80209283D-03  0.46393949D-07  0.94906124D-06  0.94087372D-07
 -0.25893179D-03  0.16266825D-07 -0.28722230D-05  0.27206800D-04 -0.34093289D-07
  0.25899609D-05  0.74958857D-03 -0.14707185D-07 -0.43511524D-05 -0.27003389D-03
 -0.50520459D-03 -0.87288147D-03 -0.14150434D-02 -0.21488792D-02 -0.29867400D-02
 -0.35510050D-02 -0.31633586D-02 -0.15709908D-02 -0.25291622D-03 -0.26684156D-05
 -0.15723925D-05 -0.52452381D-04 -0.18278604D-03 -0.65824214D-03 -0.14510129D-02
 -0.20425578D-02  0.97436666D-04  0.26730416D-02  0.15805528D-02  0.27586754D-06
  0.33414295D-05  0.69681990D-05  0.19983582D-04  0.10377196D-05 -0.86178896D-04
 -0.22266972D-03  0.18142080D-03  0.81455536D-04 -0.10093061D-03 -0.57150344D-04
 -0.25192616D-01 -0.33184569D-01 -0.36607774D-01 -0.30405623D-01 -0.16146229D-01
 -0.41658116D-02 -0.46645344D+01 -0.61442830D+01 -0.67781060D+01 -0.56297477D+01
 -0.29895523D+01 -0.77132011D+00  0.67701855D+01  0.89179181D+01  0.98378596D+01
  0.81711127D+01  0.43390876D+01  0.11195073D+01  0.12887905D-05 -0.12459197D-04
 -0.17568769D-04 -0.25127987D-04  0.12724459D-06  0.23044734D-04  0.23746294D-03
 -0.22956389D-02 -0.32370905D-02 -0.46298957D-02  0.23445140D-04  0.42460510D-02
 -0.33433711D-03  0.32321561D-02  0.45576775D-02  0.65186844D-02 -0.33009700D-04
 -0.59782484D-02 -0.16246515D-03 -0.29937553D-01  0.43673304D-01  0.24094796D-05
  0.34409602D-03 -0.55710369D-03  0.82258466D-07  0.10943642D-04 -0.17207288D-04
 -0.14430452D-04 -0.74761599D-03  0.76204644D-03 -0.42153936D-05 -0.41540392D-05
  0.68719870D-03  0.58534479D-04  0.43216707D-03 -0.49070155D-03  0.20109515D-05
  0.32449680D-05 -0.35240479D-03  0.47713038D-05 -0.18260781D-05 -0.29452257D-05
 -0.17235176D-07  0.20479461D-06 -0.48944842D-05 -0.41429036D-07 -0.13851392D-04
 -0.26235147D-05  0.47039669D-06  0.18500097D-04  0.37027970D-04 -0.34610959D-06
  0.23054079D-04 -0.29157426D-04 -0.43702325D-06 -0.13119932D-06  0.75076698D-04
 -0.42085188D-04 -0.34886220D-06  0.11411400D-04  0.51392183D-04  0.74246016D-06
 -0.23664149D-03  0.74863380D-04  0.19755789D-05  0.27089634D-03  0.50681815D-03
  0.87566934D-03  0.14195629D-02  0.21557425D-02  0.29962792D-02  0.35623464D-02
  0.31734619D-02  0.15760083D-02  0.25372400D-03  0.26769381D-05  0.15765281D-05
  0.52590337D-04  0.18326679D-03  0.65997340D-03  0.14548292D-02  0.20479300D-02
 -0.97692936D-04 -0.26800721D-02 -0.15847098D-02 -0.27584236D-06 -0.33411246D-05
 -0.69675630D-05 -0.19981758D-04 -0.10376249D-05  0.86171030D-04  0.22264939D-03
 -0.18140425D-03 -0.81654299D-04  0.10099008D-03  0.57207561D-04 -0.70433544D-02
 -0.92777454D-02 -0.10234806D-01 -0.85008073D-02 -0.45141646D-02 -0.11646781D-02
 -0.46631348D+01 -0.61424394D+01 -0.67760722D+01 -0.56280585D+01 -0.29886552D+01
 -0.77108867D+00 -0.67677499D+01 -0.89147098D+01 -0.98343204D+01 -0.81681731D+01
 -0.43375266D+01 -0.11191045D+01  0.35233912D-06 -0.34061879D-05 -0.48030805D-05
 -0.68696758D-05  0.34787071D-07  0.63001406D-05  0.23740179D-03 -0.22950478D-02
 -0.32362570D-02 -0.46287035D-02  0.23439103D-04  0.42449577D-02  0.33421808D-03
 -0.32310054D-02 -0.45560549D-02 -0.65163637D-02  0.32997949D-04  0.59761201D-02
 -0.44429852D-04 -0.29928559D-01 -0.43657510D-01 -0.31683701D-07  0.34404283D-03
  0.55701775D-03 -0.66479979D-08  0.10940134D-04  0.17205501D-04  0.14427346D-04
  0.74744695D-03 -0.76187429D-03  0.59176735D-05  0.89019107D-05  0.68702880D-03
 -0.58532235D-04 -0.43204665D-03  0.49057889D-03 -0.31529623D-05 -0.56790477D-05
 -0.35220543D-03 -0.47700623D-05  0.18131365D-05  0.29569258D-05  0.73861955D-07
 -0.23879874D-06 -0.48971712D-05  0.16925283D-06 -0.13860772D-04  0.26191169D-05
 -0.10135923D-05  0.18504209D-04 -0.37023747D-04  0.50583385D-06  0.23078108D-04
  0.29166397D-04  0.47754320D-06  0.21010151D-06  0.75051599D-04  0.42087124D-04
  0.17474566D-05  0.11424992D-04 -0.51363495D-04 -0.23777612D-05 -0.23657979D-03
 -0.74897876D-04  0.16505829D-05
MO    2     MO 0.0        OCC NO =    2.0000377  ORB. ENERGY =    0.000000
  0.55202163D-02  0.10288775D-01  0.17446065D-01  0.26402764D-01  0.32935367D-01
  0.28263445D-01  0.10823398D-01  0.87473018D-06  0.93852808D-05  0.34595912D-04
  0.10115642D-03  0.12189840D-03 -0.14683954D-03  0.54198346D-03  0.20354605D-03
  0.29995746D-03 -0.11612462D-06 -0.11260182D-06 -0.75960522D-07 -0.39886945D-07
 -0.38676919D-07 -0.26091221D-07  0.15917310D-02  0.15434437D-02  0.10411980D-02
 -0.15832520D-05 -0.13112171D-06  0.58575873D-03 -0.35436769D-05 -0.10650134D-06
  0.49680672D-03 -0.26444678D-06 -0.26957886D-08  0.10501819D-04  0.13188486D-03
 -0.21759953D-03  0.85714661D-04 -0.24166255D-05 -0.29650227D-05 -0.30668969D-07
 -0.76429473D-04  0.24751962D-03 -0.17109015D-03  0.22396636D-05  0.12816578D-05
  0.41999784D-09  0.58110635D-04  0.22129255D-04 -0.80239890D-04 -0.24845935D-06
  0.54712193D-06  0.14004846D-07  0.43516768D-06 -0.15767818D-07  0.32966417D-04
 -0.14844429D-05  0.34308019D-07 -0.37569146D-04  0.17893983D-06  0.12995435D-07
 -0.61330106D-04 -0.16276753D-06 -0.35823822D-06 -0.25978333D-08  0.34714220D-04
  0.62724721D-06 -0.26509746D-07  0.32389455D-04  0.44746745D-06  0.34303246D-07
 -0.13653212D-03 -0.11683439D-05 -0.38865784D-02 -0.72453651D-02 -0.12245654D-01
 -0.18407502D-01 -0.22610319D-01 -0.19082312D-01 -0.71754476D-02 -0.41660070D-05
 -0.31138321D-04 -0.11637102D-03 -0.32465701D-03 -0.43495089D-03  0.51359590D-03
 -0.10465938D-03 -0.12406652D-04  0.85663143D-04 -0.48403620D-06 -0.45381470D-06
 -0.32314310D-06  0.97817989D-07  0.91710582D-07  0.65303398D-07  0.97959641D-03
  0.91843390D-03  0.65397965D-03 -0.38945843D-06  0.37758310D-07  0.82768373D-03
  0.78892419D-06 -0.24485391D-08 -0.20428334D-03  0.73955154D-07 -0.20040198D-08
 -0.21912360D-04 -0.68408992D-04  0.68317181D-03 -0.61476282D-03  0.51943685D-05
  0.12647557D-05  0.39547150D-07  0.82278243D-04 -0.16596934D-03  0.83691098D-04
 -0.17158941D-05  0.20779571D-05  0.99712254D-08 -0.12936236D-06  0.11551900D-03
 -0.11538964D-03  0.79931454D-06  0.69175565D-06  0.97877416D-08  0.58063504D-06
  0.36076470D-07  0.13660505D-03  0.35934633D-06 -0.32067910D-09 -0.17573436D-03
 -0.21012515D-05 -0.10790873D-06 -0.23408080D-03 -0.40310137D-06 -0.23544916D-06
 -0.37226780D-07 -0.68571251D-04 -0.12952840D-05 -0.67042078D-09  0.94796071D-04
  0.20016314D-05  0.11235076D-06  0.11091768D-03  0.11070283D-06 -0.14779671D-02
 -0.27651187D-02 -0.47775118D-02 -0.77449080D-02 -0.11761386D-01 -0.16347220D-01
 -0.19435592D-01 -0.17313901D-01 -0.85984492D-02 -0.13842776D-02 -0.14604946D-04
 -0.72322173D-05 -0.24125466D-03 -0.84072420D-03 -0.30275840D-02 -0.66739321D-02
 -0.93947424D-02  0.44815983D-03  0.12294652D-01  0.72697507D-02  0.91822267D-07
  0.11121919D-05  0.23193589D-05  0.66515176D-05  0.34540405D-06 -0.28684570D-04
 -0.74115419D-04  0.60385755D-04  0.32827307D-03 -0.19066873D-03 -0.16753046D-03
  0.21353398D-01  0.28127421D-01  0.31028948D-01  0.25771971D-01  0.13685632D-01
  0.35309645D-02  0.41030342D+01  0.54046558D+01  0.59621814D+01  0.49520585D+01
  0.26296805D+01  0.67847131D+00 -0.71168361D+01 -0.93745380D+01 -0.10341583D+02
 -0.85894943D+01 -0.45612598D+01 -0.11768289D+01 -0.99086636D-06  0.95790585D-05
  0.13507472D-04  0.19319259D-04 -0.97830006D-07 -0.17717582D-04 -0.17582437D-03
  0.16997568D-02  0.23968346D-02  0.34281075D-02 -0.17359454D-04 -0.31438979D-02
  0.33292333D-03 -0.32184885D-02 -0.45384048D-02 -0.64911194D-02  0.32870115D-04
  0.59529687D-02  0.13877086D-03  0.26394594D-01 -0.46080222D-01  0.96364325D-07
 -0.16693873D-03  0.22031880D-03 -0.71350479D-08 -0.11651792D-04  0.71475783D-05
  0.22315762D-04  0.42842959D-03 -0.45074536D-03  0.13384747D-05  0.16005558D-05
 -0.39932693D-03  0.47232641D-05 -0.27380071D-03  0.26907744D-03 -0.20582010D-05
 -0.13240682D-06  0.44931801D-03 -0.66167901D-06  0.38074198D-04 -0.37412519D-04
  0.26067692D-06  0.45493986D-06 -0.16766196D-04  0.24702619D-06 -0.32804282D-04
  0.10025531D-04 -0.32271509D-06  0.51266310D-04  0.52448863D-05 -0.41836349D-06
  0.47146536D-04 -0.35321481D-04 -0.71534973D-06  0.49632889D-07 -0.48095405D-04
 -0.13491381D-04 -0.68056762D-06  0.14145512D-04 -0.40023754D-04  0.53166896D-06
  0.13014070D-03  0.80497897D-04  0.50686600D-06 -0.14773715D-02 -0.27640043D-02
 -0.47755864D-02 -0.77417867D-02 -0.11756646D-01 -0.16340632D-01 -0.19427759D-01
 -0.17306923D-01 -0.85949839D-02 -0.13837197D-02 -0.14599060D-04 -0.72293368D-05
 -0.24115857D-03 -0.84038934D-03 -0.30263781D-02 -0.66712739D-02 -0.93910005D-02
  0.44798133D-03  0.12289755D-01  0.72668552D-02  0.91792476D-07  0.11118310D-05
  0.23186064D-05  0.66493595D-05  0.34529198D-06 -0.28675263D-04 -0.74091373D-04
  0.60366163D-04  0.32810285D-03 -0.19061246D-03 -0.16750382D-03 -0.70062255D-02
 -0.92288380D-02 -0.10180853D-01 -0.84559955D-02 -0.44903683D-02 -0.11585385D-02
 -0.41046513D+01 -0.54067860D+01 -0.59645313D+01 -0.49540102D+01 -0.26307169D+01
 -0.67873871D+00 -0.71192069D+01 -0.93776609D+01 -0.10345028D+02 -0.85923557D+01
 -0.45627793D+01 -0.11772209D+01  0.22441779D-06 -0.21695268D-05 -0.30592593D-05
 -0.43755501D-05  0.22157170D-07  0.40127921D-05  0.17590454D-03 -0.17005319D-02
 -0.23979275D-02 -0.34296706D-02  0.17367369D-04  0.31453314D-02  0.33303719D-03
 -0.32195893D-02 -0.45399569D-02 -0.64933394D-02  0.32881357D-04  0.59550047D-02
 -0.43664858D-04 -0.26404996D-01 -0.46095498D-01  0.12500249D-05  0.16705259D-03
  0.22051611D-03  0.73389326D-07  0.11655626D-04  0.71545620D-05  0.22330141D-04
  0.42866116D-03 -0.45099130D-03  0.42768244D-05  0.43635757D-05  0.39956113D-03
  0.47063695D-05 -0.27393061D-03  0.26922424D-03 -0.17927314D-05 -0.32396201D-05
 -0.44941360D-03 -0.66259506D-06  0.38074292D-04 -0.37411697D-04  0.27477865D-06
  0.57073464D-06  0.16764519D-04 -0.10723179D-06  0.32795576D-04  0.10025972D-04
  0.10657058D-05 -0.51254436D-04  0.52353095D-05 -0.74401041D-06 -0.47132292D-04
 -0.35313226D-04  0.15472633D-06 -0.48080158D-07  0.48118462D-04 -0.13478524D-04
  0.51277788D-06 -0.14143505D-04 -0.40036097D-04 -0.36853741D-06 -0.13021188D-03
  0.80471670D-04  0.11596057D-05
MO    3     MO 0.0        OCC NO =    2.0000335  ORB. ENERGY =    0.000000
 -0.14275985D-08 -0.26608088D-08 -0.45117753D-08 -0.68280921D-08 -0.85175067D-08
 -0.73092880D-08 -0.27990690D-08 -0.61694694D-12 -0.66194358D-11 -0.24400487D-10
 -0.71345592D-10 -0.85974908D-10  0.10356589D-09 -0.10020986D-09  0.18279061D-09
  0.57940007D-10  0.10150160D-06  0.98422406D-07  0.66395174D-07 -0.67700131D-05
 -0.65646354D-05 -0.44284643D-05  0.56019990D-10  0.54320546D-10  0.36644319D-10
  0.29849619D-07 -0.19441576D-05 -0.13873735D-09 -0.11000919D-07 -0.74837068D-05
 -0.83621583D-10 -0.19104295D-08 -0.74477486D-06 -0.13897798D-11  0.39822937D-06
 -0.39823150D-06  0.21339627D-11  0.11525206D-03  0.10166879D-08 -0.66167703D-05
  0.11507963D-06 -0.11511524D-06  0.35605058D-10  0.33298232D-04 -0.30901742D-09
  0.34079660D-05 -0.54836539D-06  0.54835020D-06  0.15187047D-10 -0.15868513D-03
  0.72719489D-09  0.16885087D-05 -0.11892423D-07  0.11008290D-05 -0.20320260D-10
  0.47336431D-07 -0.39744966D-05 -0.27006782D-05 -0.11659162D-07  0.67200966D-06
  0.27007392D-05 -0.78152727D-03  0.38861285D-08 -0.32697969D-06 -0.36281528D-11
 -0.18012565D-07  0.14458552D-05  0.84008946D-06  0.63541796D-08 -0.46491612D-06
 -0.84007858D-06  0.24310524D-03  0.59271021D-08  0.11049312D-07  0.18674843D-07
  0.28071772D-07  0.34481144D-07  0.29100869D-07  0.10942687D-07  0.13300967D-11
  0.99416484D-11  0.37154210D-10  0.10365446D-09  0.13886840D-09 -0.16397769D-09
  0.46016452D-09 -0.17768176D-09 -0.12890016D-10 -0.12751217D-06 -0.11955076D-06
 -0.85127263D-07  0.90091739D-05  0.84466732D-05  0.60145345D-05  0.21479949D-09
  0.20138818D-09  0.14340038D-09 -0.25770932D-07  0.70937426D-06 -0.17489017D-09
  0.16581813D-07  0.52827667D-05  0.41533137D-10  0.14221054D-08  0.47481579D-06
 -0.24620369D-11  0.41588048D-05 -0.41588650D-05  0.60240951D-10  0.12034898D-02
  0.39179947D-07 -0.31039793D-06 -0.15856660D-06  0.15864600D-06 -0.79398072D-10
 -0.45906130D-04 -0.27700596D-08  0.56216440D-05  0.24979264D-06 -0.24977708D-06
 -0.15565403D-10  0.72283755D-04  0.35845270D-08  0.11277543D-05  0.11700524D-07
 -0.42141734D-06 -0.46382861D-10 -0.19981610D-07  0.17998808D-05 -0.12107614D-05
 -0.15119963D-07 -0.53562877D-06  0.12109005D-05 -0.35038845D-03 -0.72620084D-08
 -0.45683044D-07  0.33113535D-11  0.13694467D-07 -0.15561045D-05  0.12262502D-05
  0.80915586D-08  0.16931537D-05 -0.12262601D-05  0.35486498D-03  0.55039350D-04
  0.10297275D-03  0.17791407D-03  0.28841962D-03  0.43799287D-03  0.60876888D-03
  0.72377955D-03  0.64476797D-03  0.32020541D-03  0.51550362D-04  0.54388677D-06
  0.25757916D-06  0.85924096D-05  0.29942827D-04  0.10782897D-03  0.23769554D-03
  0.33459861D-03 -0.15961444D-04 -0.43788039D-03 -0.25891593D-03  0.49378909D-08
  0.59809917D-07  0.12472728D-06  0.35769611D-06  0.18574661D-07 -0.15425591D-05
 -0.39856765D-05  0.32473416D-05 -0.14742888D-04  0.69830050D-06  0.22055175D-05
  0.82142173D+01  0.10820046D+02  0.11936204D+02  0.99139522D+01  0.52645837D+01
  0.13582901D+01 -0.22445065D-02 -0.29565401D-02 -0.32615266D-02 -0.27089532D-02
 -0.14385293D-02 -0.37114808D-03  0.29027323D-01  0.38235775D-01  0.42180045D-01
  0.35033830D-01  0.18603936D-01  0.47999127D-02 -0.35886844D-03  0.34693092D-02
  0.48920881D-02  0.69969802D-02 -0.35431723D-04 -0.64168907D-02  0.37453843D-08
 -0.36207965D-07 -0.51057011D-07 -0.73025032D-07  0.36978848D-09  0.66970842D-07
 -0.13566187D-05  0.13114917D-04  0.18493402D-04  0.26450457D-04 -0.13394139D-06
 -0.24257564D-04  0.53688829D-01 -0.12010034D-04  0.19221297D-03 -0.42412116D-03
  0.49995884D-06  0.21141717D-06 -0.15167544D-04 -0.37454613D-07  0.46580653D-07
 -0.36043012D-06 -0.68985243D-06  0.10502825D-05  0.90730142D-03  0.51078076D-03
  0.13011714D-05  0.64088145D-06  0.17315985D-06 -0.81404130D-06 -0.47180592D-03
 -0.31787231D-03 -0.27011990D-05 -0.15956886D-06 -0.18763073D-06  0.34719959D-06
  0.21549634D-04  0.36872606D-04  0.18230278D-06  0.22741468D-04  0.23333025D-06
 -0.45580976D-06  0.41988668D-04 -0.50906263D-06  0.11801993D-05 -0.11021307D-03
 -0.19092812D-06  0.18722999D-06  0.96123313D-05  0.17575491D-04  0.32226668D-07
  0.36576323D-06 -0.90604648D-04  0.46007131D-06 -0.34691454D-06  0.37878176D-04
 -0.55675132D-06 -0.75037515D-06 -0.14742373D-03 -0.55031690D-04 -0.10295842D-03
 -0.17788931D-03 -0.28837948D-03 -0.43793191D-03 -0.60868415D-03 -0.72367882D-03
 -0.64467824D-03 -0.32016084D-03 -0.51543187D-04 -0.54381107D-06 -0.25754338D-06
 -0.85912160D-05 -0.29938668D-04 -0.10781399D-03 -0.23766252D-03 -0.33455213D-03
  0.15959227D-04  0.43781956D-03  0.25887996D-03 -0.49368592D-08 -0.59797421D-07
 -0.12470122D-06 -0.35762138D-06 -0.18570780D-07  0.15422368D-05  0.39848438D-05
 -0.32466631D-05  0.14740653D-04 -0.69819361D-06 -0.22054945D-05 -0.82138987D+01
 -0.10819626D+02 -0.11935741D+02 -0.99135676D+01 -0.52643795D+01 -0.13582374D+01
  0.54525301D-01  0.71822576D-01  0.79231544D-01  0.65808001D-01  0.34945875D-01
  0.90162183D-02 -0.29027063D-01 -0.38235432D-01 -0.42179667D-01 -0.35033516D-01
 -0.18603769D-01 -0.47998696D-02  0.35885251D-03 -0.34691552D-02 -0.48918709D-02
 -0.69966695D-02  0.35430149D-04  0.64166058D-02 -0.24764473D-05  0.23940699D-04
  0.33758885D-04  0.48284135D-04 -0.24450407D-06 -0.44281106D-04  0.13566040D-05
 -0.13114774D-04 -0.18493201D-04 -0.26450169D-04  0.13393993D-06  0.24257300D-04
 -0.53686653D-01  0.35904162D-03 -0.19221093D-03  0.42411186D-03 -0.24313104D-05
 -0.21146901D-06  0.15167397D-04 -0.14228086D-06 -0.46577278D-07  0.66308922D-05
 -0.55806828D-05 -0.10502094D-05  0.90720796D-03 -0.51073909D-03  0.48313403D-05
 -0.39013159D-05  0.30873688D-05  0.81394707D-06 -0.47172301D-03  0.31781762D-03
 -0.48977303D-05  0.30850842D-06  0.38704464D-07 -0.34721289D-06  0.21548381D-04
 -0.36869968D-04  0.43716760D-06 -0.22742348D-04  0.52353489D-06  0.45581539D-06
 -0.41981274D-04 -0.61791515D-06 -0.11136798D-05  0.11020832D-03 -0.95268952D-06
 -0.25376641D-06  0.96334262D-05 -0.17565336D-04 -0.59391624D-06 -0.36577194D-06
  0.90578998D-04  0.20766021D-05 -0.67183636D-06 -0.37882991D-04 -0.29485339D-06
  0.17691522D-05 -0.14739261D-03
MO    4     MO 0.0        OCC NO =    2.0000300  ORB. ENERGY =    0.000000
  0.54522880D-04  0.10162168D-03  0.17231385D-03  0.26077868D-03  0.32530085D-03
  0.27915653D-03  0.10690212D-03  0.31251895D-07  0.33531232D-06  0.12360244D-05
  0.36140627D-05  0.43551213D-05 -0.52462052D-05  0.37993560D-05 -0.13467795D-05
  0.67498416D-07 -0.52014708D-02 -0.50436770D-02 -0.34024347D-02  0.17974464D-04
  0.17429184D-04  0.11757624D-04  0.30503206D-05  0.29577849D-05  0.19953042D-05
 -0.14815084D-02  0.51195832D-05  0.22617388D-05 -0.31072340D-03  0.10737935D-05
 -0.51177474D-07  0.14433105D-04 -0.49877903D-07  0.19113044D-07  0.18116127D-05
 -0.16289396D-05 -0.18267310D-06 -0.18366162D-07 -0.38617583D-03  0.13344725D-05
 -0.10330776D-05  0.70092982D-06  0.33214778D-06  0.95163212D-08  0.17474869D-03
 -0.60378846D-06 -0.54083665D-06  0.11218387D-05 -0.58100204D-06  0.11742070D-07
  0.27511159D-04 -0.95077828D-07  0.63078999D-04  0.11504258D-05 -0.15744498D-05
 -0.33289064D-03 -0.29547716D-05 -0.81167370D-06  0.14365364D-03 -0.49650598D-06
  0.55350231D-05  0.47065064D-07 -0.26687872D-04 -0.47961221D-06  0.64274294D-06
  0.13878745D-03  0.12359391D-05  0.68723130D-06 -0.58723835D-04  0.20289756D-06
 -0.26154601D-05 -0.18744441D-07 -0.13499643D-03 -0.25166054D-03 -0.42534060D-03
 -0.63936625D-03 -0.78534692D-03 -0.66280510D-03 -0.24923202D-03 -0.33673869D-07
 -0.25169131D-06 -0.94062789D-06 -0.26242053D-05 -0.35157117D-05  0.41513999D-05
 -0.91397551D-05 -0.20129031D-06 -0.10396410D-05  0.37015938D-02  0.34704795D-02
  0.24711881D-02 -0.12791759D-04 -0.11993087D-04 -0.85397923D-05 -0.34022423D-05
 -0.31898184D-05 -0.22713408D-05  0.84379145D-03 -0.29157287D-05  0.12596621D-05
  0.87927793D-04 -0.30377675D-06 -0.24809213D-05 -0.15974070D-04  0.55202498D-07
 -0.79163912D-08  0.47554181D-05 -0.12749031D-05 -0.34805150D-05 -0.57684938D-07
 -0.10320979D-02  0.35665388D-05  0.13270168D-06 -0.14781296D-05  0.13454279D-05
  0.19591866D-08  0.91057529D-04 -0.31463072D-06  0.24662189D-06 -0.88366407D-06
  0.63704218D-06 -0.72425152D-08 -0.41661976D-04  0.14396847D-06 -0.86535842D-04
 -0.45949799D-06 -0.14114409D-06  0.13295897D-03  0.18160635D-05 -0.12094214D-05