 Entering Gaussian System, Link 0=/home/bruns/programas/chemistry/gaussian/g09/g09
 Input=GAUSSIAN.com
 Output=GAUSSIAN.log
 Initial command:
 /home/bruns/programas/chemistry/gaussian/g09/l1.exe /home/bruns/programas/chemistry/gaussian/work/Gau-50640.inp -scrdir=/home/bruns/programas/chemistry/gaussian/work/
 Entering Link 1 = /home/bruns/programas/chemistry/gaussian/g09/l1.exe PID=     50642.
  
 Copyright (c) 1988,1990,1992,1993,1995,1998,2003,2009,2010,
            Gaussian, Inc.  All Rights Reserved.
  
 This is part of the Gaussian(R) 09 program.  It is based on
 the Gaussian(R) 03 system (copyright 2003, Gaussian, Inc.),
 the Gaussian(R) 98 system (copyright 1998, Gaussian, Inc.),
 the Gaussian(R) 94 system (copyright 1995, Gaussian, Inc.),
 the Gaussian 92(TM) system (copyright 1992, Gaussian, Inc.),
 the Gaussian 90(TM) system (copyright 1990, Gaussian, Inc.),
 the Gaussian 88(TM) system (copyright 1988, Gaussian, Inc.),
 the Gaussian 86(TM) system (copyright 1986, Carnegie Mellon
 University), and the Gaussian 82(TM) system (copyright 1983,
 Carnegie Mellon University). Gaussian is a federally registered
 trademark of Gaussian, Inc.
  
 This software contains proprietary and confidential information,
 including trade secrets, belonging to Gaussian, Inc.
  
 This software is provided under written license and may be
 used, copied, transmitted, or stored only in accord with that
 written license.
  
 The following legend is applicable only to US Government
 contracts under FAR:
  
                    RESTRICTED RIGHTS LEGEND
  
 Use, reproduction and disclosure by the US Government is
 subject to restrictions as set forth in subparagraphs (a)
 and (c) of the Commercial Computer Software - Restricted
 Rights clause in FAR 52.227-19.
  
 Gaussian, Inc.
 340 Quinnipiac St., Bldg. 40, Wallingford CT 06492
  
  
 ---------------------------------------------------------------
 Warning -- This program may not be used in any manner that
 competes with the business of Gaussian, Inc. or will provide
 assistance to any competitor of Gaussian, Inc.  The licensee
 of this program is prohibited from giving any competitor of
 Gaussian, Inc. access to this program.  By using this program,
 the user acknowledges that Gaussian, Inc. is engaged in the
 business of creating and licensing software in the field of
 computational chemistry and represents and warrants to the
 licensee that it is not a competitor of Gaussian, Inc. and that
 it will not use this program in any manner prohibited above.
 ---------------------------------------------------------------
  

 Cite this work as:
 Gaussian 09, Revision B.01,
 M. J. Frisch, G. W. Trucks, H. B. Schlegel, G. E. Scuseria, 
 M. A. Robb, J. R. Cheeseman, G. Scalmani, V. Barone, B. Mennucci, 
 G. A. Petersson, H. Nakatsuji, M. Caricato, X. Li, H. P. Hratchian, 
 A. F. Izmaylov, J. Bloino, G. Zheng, J. L. Sonnenberg, M. Hada, 
 M. Ehara, K. Toyota, R. Fukuda, J. Hasegawa, M. Ishida, T. Nakajima, 
 Y. Honda, O. Kitao, H. Nakai, T. Vreven, J. A. Montgomery, Jr., 
 J. E. Peralta, F. Ogliaro, M. Bearpark, J. J. Heyd, E. Brothers, 
 K. N. Kudin, V. N. Staroverov, T. Keith, R. Kobayashi, J. Normand, 
 K. Raghavachari, A. Rendell, J. C. Burant, S. S. Iyengar, J. Tomasi, 
 M. Cossi, N. Rega, J. M. Millam, M. Klene, J. E. Knox, J. B. Cross, 
 V. Bakken, C. Adamo, J. Jaramillo, R. Gomperts, R. E. Stratmann, 
 O. Yazyev, A. J. Austin, R. Cammi, C. Pomelli, J. W. Ochterski, 
 R. L. Martin, K. Morokuma, V. G. Zakrzewski, G. A. Voth, 
 P. Salvador, J. J. Dannenberg, S. Dapprich, A. D. Daniels, 
 O. Farkas, J. B. Foresman, J. V. Ortiz, J. Cioslowski, 
 and D. J. Fox, Gaussian, Inc., Wallingford CT, 2010.
 
 ******************************************
 Gaussian 09:  EM64L-G09RevB.01 12-Aug-2010
                27-Nov-2021 
 ******************************************
 %nproc=8
 Will use up to    8 processors via shared memory.
 %mem=8GB
 -----------------------------------------------------
 # qcisd/aug-cc-pvtz nosymm density=current output=wfn
 -----------------------------------------------------
 1/30=1,38=1/1;
 2/12=2,15=1,17=6,18=5,40=1/2;
 3/5=16,6=1,7=10,11=9,16=1,25=1,30=1,71=1/1,2,3;
 4//1;
 5/5=2,38=5/2;
 8/6=4,9=120000,10=1/1,4;
 9/5=8,15=1/13;
 11/28=-7,31=1,32=3,42=3/11;
 10/5=6,13=10,31=1/2;
 6/7=2,8=2,9=2,10=2,22=-1,31=1/1;
 99/5=1,6=1100,9=1/99;
 ------------------
 cl2co-wavefunction
 ------------------
 Symbolic Z-matrix:
 Charge =  0 Multiplicity = 1
 O                     0.        0.        0.6834 
 C                     0.        0.       -0.49469 
 Cl                    0.       -1.44687  -1.45981 
 Cl                    0.        1.44687  -1.46981 
 
                          Input orientation:                          
 ---------------------------------------------------------------------
 Center     Atomic      Atomic             Coordinates (Angstroms)
 Number     Number       Type             X           Y           Z
 ---------------------------------------------------------------------
      1          8           0        0.000000    0.000000    0.683397
      2          6           0        0.000000    0.000000   -0.494687
      3         17           0        0.000000   -1.446870   -1.459805
      4         17           0        0.000000    1.446870   -1.469805
 ---------------------------------------------------------------------
                    Distance matrix (angstroms):
                    1          2          3          4
     1  O    0.000000
     2  C    1.178084   0.000000
     3  Cl   2.585875   1.739220   0.000000
     4  Cl   2.594169   1.744789   2.893757   0.000000
 Symmetry turned off by external request.
 Stoichiometry    CCl2O
 Framework group  CS[SG(CCl2O)]
 Deg. of freedom     5
 Full point group                 CS      NOp   2
 Rotational constants (GHZ):      7.9591283      3.4517365      2.4076014
 Standard basis: Aug-CC-pVTZ (5D, 7F)
 Integral buffers will be    131072 words long.
 Raffenetti 1 integral format.
 Two-electron integral symmetry is turned off.
   192 basis functions,   372 primitive gaussians,   228 cartesian basis functions
    24 alpha electrons       24 beta electrons
       nuclear repulsion energy       191.9536141129 Hartrees.
 NAtoms=    4 NActive=    4 NUniq=    4 SFac= 1.00D+00 NAtFMM=   50 NAOKFM=F Big=F
 One-electron integrals computed using PRISM.
 NBasis=   192 RedAO= T  NBF=   192
 NBsUse=   192 1.00D-06 NBFU=   192
 Harris functional with IExCor=  205 diagonalized for initial guess.
 ExpMin= 3.57D-02 ExpMax= 4.56D+05 ExpMxC= 1.44D+03 IAcc=3 IRadAn=         0 AccDes= 0.00D+00
 HarFok:  IExCor=  205 AccDes= 0.00D+00 IRadAn=         0 IDoV= 1
 ScaDFX=  1.000000  1.000000  1.000000  1.000000
 FoFCou: FMM=F IPFlag=           0 FMFlag=      100000 FMFlg1=           0
         NFxFlg=           0 DoJE=T BraDBF=F KetDBF=T FulRan=T
         Omega=  0.000000  0.000000  1.000000  0.000000  0.000000 ICntrl=     500 IOpCl=  0
         NMat0=    1 NMatS0=    1 NMatT0=    0 NMatD0=    1 NMtDS0=    0 NMtDT0=    0
         I1Cent=           4 NGrid=           0.
 Symmetry not used in FoFCou.
 Requested convergence on RMS density matrix=1.00D-08 within 128 cycles.
 Requested convergence on MAX density matrix=1.00D-06.
 Requested convergence on             energy=1.00D-06.
 No special actions if energy rises.
 Keep R1 ints in memory in canonical form, NReq=346956363.
 SCF Done:  E(RHF) =  -1031.80283603     A.U. after   12 cycles
             Convg  =    0.4733D-08             -V/T =  2.0003
 ExpMin= 3.57D-02 ExpMax= 4.56D+05 ExpMxC= 1.44D+03 IAcc=3 IRadAn=         5 AccDes= 0.00D+00
 HarFok:  IExCor=  205 AccDes= 0.00D+00 IRadAn=         5 IDoV=-2
 ScaDFX=  1.000000  1.000000  1.000000  1.000000
 DSYEVD returned Info=         101 IAlg= 4 N=    50 NDim=    50 NE2=    21472416 trying DSYEV.
 Range of M.O.s used for correlation:    13   192
 NBasis=   192 NAE=    24 NBE=    24 NFC=    12 NFV=     0
 NROrb=    180 NOA=    12 NOB=    12 NVA=   168 NVB=   168

 **** Warning!!: The largest alpha MO coefficient is  0.28898666D+02

 Semi-Direct transformation.
 ModeAB=           2 MOrb=            12 LenV=    1072714323
 LASXX=     33405819 LTotXX=    33405819 LenRXX=    33405819
 LTotAB=    33954012 MaxLAS=    56388960 LenRXY=    56388960
 NonZer=    66811638 LenScr=   100987392 LnRSAI=           0
 LnScr1=           0 LExtra=           0 Total=    190782171
 MaxDsk=          -1 SrtSym=           F ITran=            4
 JobTyp=0 Pass  1:  I=   1 to  12.
 (rs|ai) integrals will be sorted in core.
 Spin components of T(2) and E(2):
     alpha-alpha T2 =       0.3521102894D-01 E2=     -0.1018005327D+00
     alpha-beta  T2 =       0.1832475043D+00 E2=     -0.5756871144D+00
     beta-beta   T2 =       0.3521102894D-01 E2=     -0.1018005327D+00
 ANorm=    0.1119673864D+01
 E2 =    -0.7792881797D+00 EUMP2 =    -0.10325821242051D+04
 R2 and R3 integrals will be kept in memory, NReq=   687553722.
 Iterations=  50 Convergence= 0.100D-07
 Iteration Nr.   1
 **********************
 DD1Dir will call FoFMem   1 times, MxPair=       156
 NAB=    78 NAA=     0 NBB=     0.
 MP4(R+Q)=  0.22497273D-01
 E3=       -0.19088650D-01        EUMP3=      -0.10326012129D+04
 E4(DQ)=    0.28610913D-02        UMP4(DQ)=   -0.10325983518D+04
 E4(SDQ)=  -0.60936763D-02        UMP4(SDQ)=  -0.10326073065D+04
 DE(Corr)= -0.77587956     E(Corr)=     -1032.5787156    
 NORM(A)=   0.11212622D+01
 Iteration Nr.   2
 **********************
 DD1Dir will call FoFMem   1 times, MxPair=       156
 NAB=    78 NAA=     0 NBB=     0.
 DE(Corr)= -0.80153959     E(CORR)=     -1032.6043756     Delta=-2.57D-02
 NORM(A)=   0.11306035D+01
 Iteration Nr.   3
 **********************
 DD1Dir will call FoFMem   1 times, MxPair=       156
 NAB=    78 NAA=     0 NBB=     0.
 DE(Corr)= -0.79994896     E(CORR)=     -1032.6027850     Delta= 1.59D-03
 NORM(A)=   0.11331966D+01
 Iteration Nr.   4
 **********************
 DD1Dir will call FoFMem   1 times, MxPair=       156
 NAB=    78 NAA=     0 NBB=     0.
 DE(Corr)= -0.80237038     E(CORR)=     -1032.6052064     Delta=-2.42D-03
 NORM(A)=   0.11342038D+01
 Iteration Nr.   5
 **********************
 DD1Dir will call FoFMem   1 times, MxPair=       156
 NAB=    78 NAA=     0 NBB=     0.
 DE(Corr)= -0.80268640     E(CORR)=     -1032.6055224     Delta=-3.16D-04
 NORM(A)=   0.11345924D+01
 Iteration Nr.   6
 **********************
 DD1Dir will call FoFMem   1 times, MxPair=       156
 NAB=    78 NAA=     0 NBB=     0.
 DE(Corr)= -0.80273683     E(CORR)=     -1032.6055729     Delta=-5.04D-05
 NORM(A)=   0.11346632D+01
 Iteration Nr.   7
 **********************
 DD1Dir will call FoFMem   1 times, MxPair=       156
 NAB=    78 NAA=     0 NBB=     0.
 DE(Corr)= -0.80274592     E(CORR)=     -1032.6055819     Delta=-9.09D-06
 NORM(A)=   0.11346643D+01
 Iteration Nr.   8
 **********************
 DD1Dir will call FoFMem   1 times, MxPair=       156
 NAB=    78 NAA=     0 NBB=     0.
 DE(Corr)= -0.80274550     E(CORR)=     -1032.6055815     Delta= 4.17D-07
 NORM(A)=   0.11346723D+01
 Iteration Nr.   9
 **********************
 DD1Dir will call FoFMem   1 times, MxPair=       156
 NAB=    78 NAA=     0 NBB=     0.
 DE(Corr)= -0.80274424     E(CORR)=     -1032.6055803     Delta= 1.26D-06
 NORM(A)=   0.11346718D+01
 Iteration Nr.  10
 **********************
 DD1Dir will call FoFMem   1 times, MxPair=       156
 NAB=    78 NAA=     0 NBB=     0.
 DE(Corr)= -0.80274543     E(CORR)=     -1032.6055815     Delta=-1.19D-06
 NORM(A)=   0.11346734D+01
 Iteration Nr.  11
 **********************
 DD1Dir will call FoFMem   1 times, MxPair=       156
 NAB=    78 NAA=     0 NBB=     0.
 DE(Corr)= -0.80274624     E(CORR)=     -1032.6055823     Delta=-8.07D-07
 NORM(A)=   0.11346746D+01
 Iteration Nr.  12
 **********************
 DD1Dir will call FoFMem   1 times, MxPair=       156
 NAB=    78 NAA=     0 NBB=     0.
 DE(Corr)= -0.80274649     E(CORR)=     -1032.6055825     Delta=-2.52D-07
 NORM(A)=   0.11346752D+01
 Iteration Nr.  13
 **********************
 DD1Dir will call FoFMem   1 times, MxPair=       156
 NAB=    78 NAA=     0 NBB=     0.
 DE(Corr)= -0.80274681     E(CORR)=     -1032.6055828     Delta=-3.21D-07
 NORM(A)=   0.11346757D+01
 Iteration Nr.  14
 **********************
 DD1Dir will call FoFMem   1 times, MxPair=       156
 NAB=    78 NAA=     0 NBB=     0.
 DE(Corr)= -0.80274687     E(CORR)=     -1032.6055829     Delta=-6.65D-08
 NORM(A)=   0.11346759D+01
 Iteration Nr.  15
 **********************
 DD1Dir will call FoFMem   1 times, MxPair=       156
 NAB=    78 NAA=     0 NBB=     0.
 DE(Corr)= -0.80274692     E(CORR)=     -1032.6055829     Delta=-4.69D-08
 NORM(A)=   0.11346759D+01
 Iteration Nr.  16
 **********************
 DD1Dir will call FoFMem   1 times, MxPair=       156
 NAB=    78 NAA=     0 NBB=     0.
 DE(Corr)= -0.80274694     E(CORR)=     -1032.6055830     Delta=-1.57D-08
 NORM(A)=   0.11346759D+01
 Iteration Nr.  17
 **********************
 DD1Dir will call FoFMem   1 times, MxPair=       156
 NAB=    78 NAA=     0 NBB=     0.
 DE(Corr)= -0.80274694     E(CORR)=     -1032.6055830     Delta= 1.48D-09
 NORM(A)=   0.11346760D+01
 Iteration Nr.  18
 **********************
 DD1Dir will call FoFMem   1 times, MxPair=       156
 NAB=    78 NAA=     0 NBB=     0.
 DE(Corr)= -0.80274694     E(CORR)=     -1032.6055830     Delta=-7.55D-10
 NORM(A)=   0.11346759D+01
 Iteration Nr.  19
 **********************
 DD1Dir will call FoFMem   1 times, MxPair=       156
 NAB=    78 NAA=     0 NBB=     0.
 DE(Corr)= -0.80274694     E(CORR)=     -1032.6055830     Delta= 4.24D-10
 NORM(A)=   0.11346759D+01
 Largest amplitude= 3.37D-02

 Z-AMPLITUDE ITERATIONS

 Iteration Nr.   1
 **********************
 DD1Dir will call FoFMem   1 times, MxPair=       156
 NAB=    78 NAA=     0 NBB=     0.
 DE(Z)  -0.77474687D+00          E(Z)=    -0.10325775829D+04
 NORM(A)=   0.11346702D+01
 Iteration Nr.   2
 **********************
 DD1Dir will call FoFMem   1 times, MxPair=       156
 NAB=    78 NAA=     0 NBB=     0.
 DE(Z)  -0.77474668D+00          E(Z)=    -0.10325775827D+04
 NORM(A)=   0.11346745D+01
 Iteration Nr.   3
 **********************
 DD1Dir will call FoFMem   1 times, MxPair=       156
 NAB=    78 NAA=     0 NBB=     0.
 DE(Z)  -0.77474682D+00          E(Z)=    -0.10325775828D+04
 NORM(A)=   0.11346759D+01
 Iteration Nr.   4
 **********************
 DD1Dir will call FoFMem   1 times, MxPair=       156
 NAB=    78 NAA=     0 NBB=     0.
 DE(Z)  -0.77474687D+00          E(Z)=    -0.10325775829D+04
 NORM(A)=   0.11346758D+01
 Iteration Nr.   5
 **********************
 DD1Dir will call FoFMem   1 times, MxPair=       156
 NAB=    78 NAA=     0 NBB=     0.
 DE(Z)  -0.77474686D+00          E(Z)=    -0.10325775829D+04
 NORM(A)=   0.11250628D+01
 Iteration Nr.   6
 **********************
 DD1Dir will call FoFMem   1 times, MxPair=       156
 NAB=    78 NAA=     0 NBB=     0.
 DE(Z)  -0.77443500D+00          E(Z)=    -0.10325772710D+04
 NORM(A)=   0.11250347D+01
 Iteration Nr.   7
 **********************
 DD1Dir will call FoFMem   1 times, MxPair=       156
 NAB=    78 NAA=     0 NBB=     0.
 DE(Z)  -0.77442522D+00          E(Z)=    -0.10325772612D+04
 NORM(A)=   0.11250280D+01
 Iteration Nr.   8
 **********************
 DD1Dir will call FoFMem   1 times, MxPair=       156
 NAB=    78 NAA=     0 NBB=     0.
 DE(Z)  -0.77442718D+00          E(Z)=    -0.10325772632D+04
 NORM(A)=   0.11250287D+01
 Iteration Nr.   9
 **********************
 DD1Dir will call FoFMem   1 times, MxPair=       156
 NAB=    78 NAA=     0 NBB=     0.
 DE(Z)  -0.77442717D+00          E(Z)=    -0.10325772632D+04
 NORM(A)=   0.11250296D+01
 Iteration Nr.  10
 **********************
 DD1Dir will call FoFMem   1 times, MxPair=       156
 NAB=    78 NAA=     0 NBB=     0.
 DE(Z)  -0.77442734D+00          E(Z)=    -0.10325772634D+04
 NORM(A)=   0.11250299D+01
 Iteration Nr.  11
 **********************
 DD1Dir will call FoFMem   1 times, MxPair=       156
 NAB=    78 NAA=     0 NBB=     0.
 DE(Z)  -0.77442770D+00          E(Z)=    -0.10325772637D+04
 NORM(A)=   0.11250302D+01
 Iteration Nr.  12
 **********************
 DD1Dir will call FoFMem   1 times, MxPair=       156
 NAB=    78 NAA=     0 NBB=     0.
 DE(Z)  -0.77442757D+00          E(Z)=    -0.10325772636D+04
 NORM(A)=   0.11250303D+01
 Iteration Nr.  13
 **********************
 DD1Dir will call FoFMem   1 times, MxPair=       156
 NAB=    78 NAA=     0 NBB=     0.
 DE(Z)  -0.77442764D+00          E(Z)=    -0.10325772637D+04
 NORM(A)=   0.11250303D+01
 Iteration Nr.  14
 **********************
 DD1Dir will call FoFMem   1 times, MxPair=       156
 NAB=    78 NAA=     0 NBB=     0.
 DE(Z)  -0.77442762D+00          E(Z)=    -0.10325772636D+04
 NORM(A)=   0.11250303D+01
 Iteration Nr.  15
 **********************
 DD1Dir will call FoFMem   1 times, MxPair=       156
 NAB=    78 NAA=     0 NBB=     0.
 DE(Z)  -0.77442762D+00          E(Z)=    -0.10325772636D+04
 NORM(A)=   0.11250303D+01
 Iteration Nr.  16
 **********************
 DD1Dir will call FoFMem   1 times, MxPair=       156
 NAB=    78 NAA=     0 NBB=     0.
 DE(Z)  -0.77442762D+00          E(Z)=    -0.10325772636D+04
 NORM(A)=   0.11250303D+01
 Discarding MO integrals.
          Differentiating once with respect to electric field.
                with respect to dipole field.
          Electric field/nuclear overlap derivatives assumed to be zero.
          Keep R1 ints in memory in canonical form, NReq=342715808.
          There are     1 degrees of freedom in the 1st order CPHF.  IDoFFX=0.
 LinEq1:  Iter=  0 NonCon=     1 RMS=2.34D-03 Max=5.66D-02
 AX will form     1 AO Fock derivatives at one time.
 LinEq1:  Iter=  1 NonCon=     1 RMS=8.28D-04 Max=1.86D-02
 LinEq1:  Iter=  2 NonCon=     1 RMS=3.09D-04 Max=5.65D-03
 LinEq1:  Iter=  3 NonCon=     1 RMS=1.27D-04 Max=3.31D-03
 LinEq1:  Iter=  4 NonCon=     1 RMS=5.08D-05 Max=1.21D-03
 LinEq1:  Iter=  5 NonCon=     1 RMS=1.64D-05 Max=3.64D-04
 LinEq1:  Iter=  6 NonCon=     1 RMS=4.15D-06 Max=5.63D-05
 LinEq1:  Iter=  7 NonCon=     1 RMS=9.86D-07 Max=1.15D-05
 LinEq1:  Iter=  8 NonCon=     1 RMS=2.09D-07 Max=3.15D-06
 LinEq1:  Iter=  9 NonCon=     1 RMS=4.73D-08 Max=8.07D-07
 LinEq1:  Iter= 10 NonCon=     1 RMS=1.20D-08 Max=2.25D-07
 LinEq1:  Iter= 11 NonCon=     1 RMS=2.51D-09 Max=3.82D-08
 LinEq1:  Iter= 12 NonCon=     1 RMS=4.63D-10 Max=1.15D-08
 LinEq1:  Iter= 13 NonCon=     1 RMS=8.24D-11 Max=1.23D-09
 LinEq1:  Iter= 14 NonCon=     0 RMS=1.90D-11 Max=2.90D-10
 Linear equations converged to 1.000D-10 1.000D-09 after    14 iterations.
 End of Minotr Frequency-dependent properties file   721 does not exist.
 End of Minotr Frequency-dependent properties file   722 does not exist.

 **********************************************************************

            Population analysis using the QCI/CC density.

 **********************************************************************

     Natural Orbital Coefficients:
                           1         2         3         4         5
     Eigenvalues --     2.00004   2.00004   2.00003   2.00003   2.00003
   1 1   O  1S         -0.00051   0.01092   0.00000   0.00000   0.00216
   2        2S          0.00002  -0.00026   0.00000   0.00000  -0.00007
   3        3S         -0.00002   0.00050   0.00000   0.00000   0.00008
   4        4S          0.00001   0.00080   0.00000   0.00000   0.00008
   5        5S         -0.00010   0.00297   0.00000   0.00000   0.00003
   6        6PX         0.00000   0.00000   0.00000  -0.00106   0.00000
   7        6PY        -0.00018   0.00000   0.00000   0.00000   0.00026
   8        6PZ        -0.00001   0.00033   0.00000   0.00000  -0.00002
   9        7PX         0.00000   0.00000   0.00001  -0.00158   0.00000
  10        7PY        -0.00101  -0.00004   0.00000   0.00000   0.00048
  11        7PZ        -0.00003   0.00063   0.00000   0.00000  -0.00003
  12        8PX         0.00000   0.00000   0.00002  -0.00151   0.00000
  13        8PY        -0.00371  -0.00011   0.00000   0.00000   0.00154
  14        8PZ        -0.00010   0.00241   0.00000   0.00000  -0.00011
  15        9PX         0.00000   0.00000   0.00001   0.00034   0.00000
  16        9PY        -0.00048  -0.00001   0.00000   0.00000   0.00116
  17        9PZ        -0.00001   0.00025   0.00000   0.00000   0.00002
  18       10D 0        0.00000   0.00001   0.00000   0.00000   0.00000
  19       10D+1        0.00000   0.00000   0.00000  -0.00003   0.00000
  20       10D-1       -0.00002   0.00000   0.00000   0.00000   0.00003
  21       10D+2        0.00000   0.00003   0.00000   0.00000   0.00000
  22       10D-2        0.00000   0.00000   0.00001   0.00000   0.00000
  23       11D 0        0.00001  -0.00023   0.00000   0.00000   0.00001
  24       11D+1        0.00000   0.00000   0.00000   0.00013   0.00000
  25       11D-1       -0.00006   0.00000   0.00000   0.00000  -0.00009
  26       11D+2        0.00002  -0.00025   0.00000   0.00000   0.00000
  27       11D-2        0.00000   0.00000   0.00003   0.00000   0.00000
  28       12D 0        0.00004  -0.00073   0.00000   0.00000   0.00000
  29       12D+1        0.00000   0.00000   0.00000   0.00015   0.00000
  30       12D-1        0.00060   0.00002   0.00000   0.00000  -0.00028
  31       12D+2        0.00000   0.00018   0.00000   0.00000  -0.00004
  32       12D-2        0.00000   0.00000  -0.00083   0.00000   0.00000
  33       13F 0        0.00000   0.00001   0.00000   0.00000   0.00000
  34       13F+1        0.00000   0.00000   0.00000   0.00002   0.00000
  35       13F-1        0.00003   0.00000   0.00000   0.00000  -0.00002
  36       13F+2        0.00000   0.00000   0.00000   0.00000   0.00000
  37       13F-2        0.00000   0.00000  -0.00006   0.00000   0.00000
  38       13F+3        0.00000   0.00000   0.00000   0.00004   0.00000
  39       13F-3        0.00004   0.00000   0.00000   0.00000   0.00000
  40       14F 0       -0.00001   0.00011   0.00000   0.00000   0.00001
  41       14F+1        0.00000   0.00000   0.00000  -0.00008   0.00000
  42       14F-1        0.00031   0.00001   0.00000   0.00000   0.00003
  43       14F+2       -0.00001   0.00014   0.00000   0.00000   0.00001
  44       14F-2        0.00000   0.00000   0.00020   0.00000   0.00000
  45       14F+3        0.00000   0.00000   0.00000  -0.00017   0.00000
  46       14F-3       -0.00020  -0.00001   0.00000   0.00000   0.00004
  47 2   C  1S          0.00049  -0.01183   0.00000   0.00000  -0.02206
  48        2S         -0.00006   0.00144   0.00000   0.00000   0.00045
  49        3S          0.00000  -0.00016   0.00000   0.00000  -0.00081
  50        4S          0.00001  -0.00011   0.00000   0.00000  -0.00097
  51        5S         -0.00004   0.00124   0.00000   0.00000  -0.00007
  52        6PX         0.00000   0.00000  -0.00001   0.00170   0.00000
  53        6PY         0.00051   0.00001   0.00000   0.00000  -0.00071
  54        6PZ        -0.00002   0.00045   0.00000   0.00000  -0.00006
  55        7PX         0.00000   0.00000  -0.00001   0.00197   0.00000
  56        7PY         0.00034   0.00002   0.00000   0.00000   0.00017
  57        7PZ        -0.00008   0.00194   0.00000   0.00000  -0.00010
  58        8PX         0.00000   0.00000  -0.00001   0.00086   0.00000
  59        8PY         0.00068   0.00001   0.00000   0.00000   0.00249
  60        8PZ         0.00007  -0.00195   0.00000   0.00000   0.00036
  61        9PX         0.00000   0.00000   0.00000  -0.00072   0.00000
  62        9PY        -0.00038  -0.00002   0.00000   0.00000  -0.00111
  63        9PZ         0.00004  -0.00099   0.00000   0.00000  -0.00003
  64       10D 0        0.00002  -0.00032   0.00000   0.00000  -0.00001
  65       10D+1        0.00000   0.00000   0.00000  -0.00031   0.00000
  66       10D-1        0.00006   0.00000   0.00000   0.00000  -0.00002
  67       10D+2        0.00001  -0.00022   0.00000   0.00000   0.00001
  68       10D-2        0.00000   0.00000   0.00036   0.00000   0.00000
  69       11D 0       -0.00004   0.00039   0.00000   0.00000  -0.00002
  70       11D+1        0.00000   0.00000  -0.00001   0.00025   0.00000
  71       11D-1        0.00018   0.00001   0.00000   0.00000  -0.00152
  72       11D+2       -0.00004   0.00066   0.00000   0.00000   0.00014
  73       11D-2        0.00000   0.00000  -0.00013   0.00001   0.00000
  74       12D 0        0.00013  -0.00396   0.00000   0.00000   0.00000
  75       12D+1        0.00000   0.00000  -0.00001  -0.00082   0.00000
  76       12D-1        0.00109   0.00002   0.00000   0.00000  -0.00224
  77       12D+2        0.00008  -0.00229   0.00000   0.00000   0.00013
  78       12D-2        0.00000   0.00000   0.00144   0.00001   0.00000
  79       13F 0       -0.00001   0.00017   0.00000   0.00000  -0.00002
  80       13F+1        0.00000   0.00000   0.00000   0.00006   0.00000
  81       13F-1       -0.00042  -0.00001   0.00000   0.00000   0.00002
  82       13F+2        0.00000   0.00002   0.00000   0.00000   0.00000
  83       13F-2        0.00000   0.00000  -0.00011   0.00000   0.00000
  84       13F+3        0.00000   0.00000   0.00000  -0.00009   0.00000
  85       13F-3       -0.00009   0.00000   0.00000   0.00000   0.00001
  86       14F 0        0.00001  -0.00089   0.00000   0.00000   0.00004
  87       14F+1        0.00000   0.00000   0.00000   0.00011   0.00000
  88       14F-1        0.00408   0.00014   0.00000   0.00000  -0.00044
  89       14F+2       -0.00002  -0.00005   0.00000   0.00000   0.00000
  90       14F-2        0.00000   0.00000   0.00121   0.00000   0.00000
  91       14F+3        0.00000   0.00000  -0.00001   0.00062   0.00000
  92       14F-3        0.00121   0.00004   0.00000   0.00000  -0.00041
  93 3   Cl 1S         -0.00043  -0.00241   0.00000   0.00000  -0.19688
  94        2S          0.00180   0.00850   0.00000   0.00000   0.66457
  95        3S          0.00040   0.00014   0.00000   0.00000  -0.01974
  96        4S          0.00012   0.00047   0.00000   0.00000   0.05155
  97        5S         -0.00056  -0.00105   0.00000   0.00000  -0.00116
  98        6S         -0.00058  -0.00198   0.00000   0.00000  -0.00160
  99        7PX         0.00000   0.00000   0.69313  -0.69141   0.00000
 100        7PY        -0.40163   0.32644   0.00000   0.00000  -0.35393
 101        7PZ         0.59557  -0.58098   0.00000   0.00000  -0.23533
 102        8PX         0.00000   0.00000  -0.01498   0.01340   0.00000
 103        8PY         0.01008  -0.00686   0.00000   0.00000   0.00682
 104        8PZ        -0.01457   0.01342   0.00000   0.00000   0.00472
 105        9PX         0.00000   0.00000   0.03670  -0.03709   0.00000
 106        9PY        -0.02088   0.01700   0.00000   0.00000  -0.02012
 107        9PZ         0.03113  -0.03047   0.00000   0.00000  -0.01341
 108       10PX         0.00000   0.00000  -0.00380   0.00332   0.00000
 109       10PY         0.00312  -0.00133   0.00000   0.00000   0.00205
 110       10PZ        -0.00513   0.00181   0.00000   0.00000   0.00150
 111       11PX         0.00000   0.00000  -0.00056   0.00081   0.00000
 112       11PY         0.00042  -0.00041   0.00000   0.00000   0.00016
 113       11PZ        -0.00064   0.00024   0.00000   0.00000  -0.00007
 114       12D 0        0.00044  -0.00024   0.00000   0.00000  -0.00006
 115       12D+1        0.00000   0.00000   0.00016  -0.00015   0.00000
 116       12D-1        0.00023  -0.00013   0.00000   0.00000   0.00015
 117       12D+2        0.00024  -0.00012   0.00000   0.00000  -0.00006
 118       12D-2        0.00000   0.00000   0.00030  -0.00015   0.00000
 119       13D 0       -0.00200   0.00099   0.00000   0.00000   0.00021
 120       13D+1        0.00000   0.00000  -0.00072   0.00061   0.00000
 121       13D-1       -0.00088   0.00101   0.00000   0.00000   0.00071
 122       13D+2       -0.00088   0.00059   0.00000   0.00000  -0.00047
 123       13D-2        0.00000   0.00000  -0.00109   0.00098   0.00000
 124       14D 0       -0.00004  -0.00076   0.00000   0.00000  -0.00006
 125       14D+1        0.00000   0.00000   0.00043   0.00005   0.00000
 126       14D-1       -0.00006  -0.00020   0.00000   0.00000   0.00032
 127       14D+2        0.00009  -0.00046   0.00000   0.00000   0.00009
 128       14D-2        0.00000   0.00000   0.00025  -0.00010   0.00000
 129       15F 0       -0.00001   0.00001   0.00000   0.00000   0.00002
 130       15F+1        0.00000   0.00000  -0.00007  -0.00004   0.00000
 131       15F-1        0.00001   0.00003   0.00000   0.00000   0.00002
 132       15F+2        0.00002   0.00002   0.00000   0.00000  -0.00001
 133       15F-2        0.00000   0.00000   0.00000  -0.00001   0.00000
 134       15F+3        0.00000   0.00000  -0.00001  -0.00001   0.00000
 135       15F-3        0.00001   0.00004   0.00000   0.00000  -0.00002
 136       16F 0       -0.00038  -0.00014   0.00000   0.00000  -0.00015
 137       16F+1        0.00000   0.00000   0.00015   0.00016   0.00000
 138       16F-1       -0.00094   0.00046   0.00000   0.00000   0.00016
 139       16F+2       -0.00004  -0.00030   0.00000   0.00000  -0.00025
 140       16F-2        0.00000   0.00000  -0.00035   0.00033   0.00000
 141       16F+3        0.00000   0.00000   0.00033  -0.00028   0.00000
 142       16F-3       -0.00020   0.00017   0.00000   0.00000  -0.00008
 143 4   Cl 1S          0.00061  -0.00228   0.00000   0.00000   0.14586
 144        2S         -0.00242   0.00806   0.00000   0.00000  -0.49245
 145        3S         -0.00040   0.00013   0.00000   0.00000   0.01456
 146        4S         -0.00015   0.00044   0.00000   0.00000  -0.03816
 147        5S          0.00060  -0.00101   0.00000   0.00000   0.00069
 148        6S          0.00072  -0.00191   0.00000   0.00000   0.00157
 149        7PX         0.00000   0.00000  -0.69190  -0.69264   0.00000
 150        7PY        -0.37996  -0.36031   0.00000   0.00000  -0.26216
 151        7PZ        -0.54786  -0.62106   0.00000   0.00000   0.18923
 152        8PX         0.00000   0.00000   0.01495   0.01342   0.00000
 153        8PY         0.00963   0.00769   0.00000   0.00000   0.00518
 154        8PZ         0.01342   0.01438   0.00000   0.00000  -0.00390
 155        9PX         0.00000   0.00000  -0.03662  -0.03715   0.00000
 156        9PY        -0.01975  -0.01877   0.00000   0.00000  -0.01490
 157        9PZ        -0.02862  -0.03256   0.00000   0.00000   0.01077
 158       10PX         0.00000   0.00000   0.00380   0.00333   0.00000
 159       10PY         0.00306   0.00159   0.00000   0.00000   0.00136
 160       10PZ         0.00493   0.00217   0.00000   0.00000  -0.00113
 161       11PX         0.00000   0.00000   0.00056   0.00081   0.00000
 162       11PY         0.00039   0.00044   0.00000   0.00000   0.00015
 163       11PZ         0.00062   0.00029   0.00000   0.00000   0.00011
 164       12D 0       -0.00042  -0.00027   0.00000   0.00000   0.00004
 165       12D+1        0.00000   0.00000  -0.00017  -0.00015   0.00000
 166       12D-1        0.00022   0.00014   0.00000   0.00000   0.00010
 167       12D+2       -0.00023  -0.00014   0.00000   0.00000   0.00004
 168       12D-2        0.00000   0.00000   0.00029   0.00015   0.00000
 169       13D 0        0.00191   0.00113   0.00000   0.00000  -0.00023
 170       13D+1        0.00000   0.00000   0.00072   0.00061   0.00000
 171       13D-1       -0.00077  -0.00105   0.00000   0.00000   0.00058
 172       13D+2        0.00084   0.00066   0.00000   0.00000   0.00032
 173       13D-2        0.00000   0.00000  -0.00107  -0.00097   0.00000
 174       14D 0        0.00009  -0.00076   0.00000   0.00000   0.00004
 175       14D+1        0.00000   0.00000  -0.00043   0.00005   0.00000
 176       14D-1       -0.00007   0.00019   0.00000   0.00000   0.00023
 177       14D+2       -0.00005  -0.00046   0.00000   0.00000  -0.00019
 178       14D-2        0.00000   0.00000   0.00025   0.00010   0.00000
 179       15F 0        0.00000   0.00002   0.00000   0.00000  -0.00002
 180       15F+1        0.00000   0.00000   0.00007  -0.00004   0.00000
 181       15F-1        0.00001  -0.00003   0.00000   0.00000   0.00002
 182       15F+2       -0.00003   0.00002   0.00000   0.00000   0.00001
 183       15F-2        0.00000   0.00000   0.00000   0.00001   0.00000
 184       15F+3        0.00000   0.00000   0.00001  -0.00001   0.00000
 185       15F-3        0.00002  -0.00004   0.00000   0.00000  -0.00001
 186       16F 0        0.00040  -0.00011   0.00000   0.00000   0.00013
 187       16F+1        0.00000   0.00000  -0.00015   0.00016   0.00000
 188       16F-1       -0.00089  -0.00053   0.00000   0.00000   0.00016
 189       16F+2        0.00007  -0.00029   0.00000   0.00000   0.00020
 190       16F-2        0.00000   0.00000  -0.00035  -0.00033   0.00000
 191       16F+3        0.00000   0.00000  -0.00032  -0.00028   0.00000
 192       16F-3       -0.00018  -0.00019   0.00000   0.00000  -0.00004
                           6         7         8         9        10
     Eigenvalues --     2.00003   2.00001   2.00001   2.00001   2.00000
   1 1   O  1S          0.01409  -0.07874   0.24408   0.88128   0.34149
   2        2S         -0.00043   0.00174  -0.00534  -0.01618  -0.00558
   3        3S          0.00056  -0.00329   0.01019   0.03749   0.01494
   4        4S          0.00064   0.00021  -0.00046  -0.00324  -0.00113
   5        5S          0.00030  -0.00052   0.00170  -0.00096  -0.00171
   6        6PX         0.00000   0.00000   0.00000   0.00000   0.00000
   7        6PY        -0.00004  -0.00076  -0.00025   0.00001  -0.00001
   8        6PZ        -0.00010   0.00054  -0.00167  -0.00374   0.00045
   9        7PX         0.00000   0.00000   0.00000   0.00000   0.00000
  10        7PY        -0.00008  -0.00127  -0.00043   0.00001  -0.00001
  11        7PZ        -0.00021   0.00039  -0.00121  -0.00078   0.00314
  12        8PX         0.00000   0.00000   0.00000   0.00000   0.00000
  13        8PY        -0.00022  -0.00391  -0.00132   0.00002  -0.00001
  14        8PZ        -0.00076   0.00060  -0.00194  -0.00262   0.00281
  15        9PX         0.00000   0.00000   0.00000   0.00000   0.00000
  16        9PY        -0.00017  -0.00145  -0.00049   0.00001   0.00000
  17        9PZ         0.00016   0.00008  -0.00027  -0.00032   0.00086
  18       10D 0        0.00002  -0.00003   0.00010   0.00021   0.00002
  19       10D+1        0.00000   0.00000   0.00000   0.00000   0.00000
  20       10D-1        0.00000  -0.00004  -0.00001   0.00000   0.00000
  21       10D+2        0.00000   0.00000   0.00000  -0.00007   0.00000
  22       10D-2        0.00000   0.00000   0.00000   0.00000   0.00000
  23       11D 0        0.00007  -0.00003   0.00009  -0.00036  -0.00105
  24       11D+1        0.00000   0.00000   0.00000   0.00000   0.00000
  25       11D-1        0.00001   0.00009   0.00004   0.00000   0.00001
  26       11D+2       -0.00002   0.00006  -0.00017  -0.00003  -0.00012
  27       11D-2        0.00000   0.00000   0.00000   0.00000   0.00000
  28       12D 0        0.00007   0.00000   0.00002   0.00075  -0.00096
  29       12D+1        0.00000   0.00000   0.00000   0.00000   0.00000
  30       12D-1        0.00004   0.00099   0.00033   0.00000   0.00000
  31       12D+2       -0.00022   0.00020  -0.00060   0.00016  -0.00003
  32       12D-2        0.00000   0.00000   0.00000   0.00000   0.00000
  33       13F 0        0.00001  -0.00003   0.00009   0.00006  -0.00013
  34       13F+1        0.00000   0.00000   0.00000   0.00000   0.00000
  35       13F-1        0.00000   0.00006   0.00002   0.00000   0.00000
  36       13F+2       -0.00001   0.00001  -0.00002  -0.00002  -0.00002
  37       13F-2        0.00000   0.00000   0.00000   0.00000   0.00000
  38       13F+3        0.00000   0.00000   0.00000   0.00000   0.00000
  39       13F-3        0.00000   0.00000   0.00000   0.00000   0.00000
  40       14F 0        0.00006  -0.00005   0.00014  -0.00007   0.00053
  41       14F+1        0.00000   0.00000   0.00000   0.00000   0.00000
  42       14F-1        0.00000  -0.00004  -0.00001   0.00000   0.00000
  43       14F+2        0.00009  -0.00009   0.00028  -0.00010   0.00018
  44       14F-2        0.00000   0.00000   0.00000   0.00000   0.00000
  45       14F+3        0.00000   0.00000   0.00000   0.00000   0.00000
  46       14F-3       -0.00001  -0.00006  -0.00002   0.00000   0.00000
  47 2   C  1S         -0.14461   0.19109  -0.58261  -0.10751   0.74367
  48        2S          0.00291  -0.00333   0.01015   0.00094  -0.00668
  49        3S         -0.00529   0.00745  -0.02270  -0.00519   0.03225
  50        4S         -0.00630   0.00171  -0.00547   0.00568  -0.01225
  51        5S         -0.00042   0.00076  -0.00237   0.00148  -0.00229
  52        6PX         0.00000   0.00000   0.00000   0.00000   0.00000
  53        6PY         0.00010   0.00234   0.00076   0.00000   0.00000
  54        6PZ        -0.00038   0.00020  -0.00059   0.00096  -0.00197
  55        7PX         0.00000   0.00000   0.00000   0.00000   0.00000
  56        7PY        -0.00001  -0.00035  -0.00011   0.00000   0.00002
  57        7PZ        -0.00069   0.00040  -0.00126   0.00084   0.00504
  58        8PX         0.00000   0.00000   0.00000   0.00000   0.00000
  59        8PY        -0.00034  -0.00011   0.00000  -0.00001   0.00002
  60        8PZ         0.00240  -0.00052   0.00159  -0.00101   0.00411
  61        9PX         0.00000   0.00000   0.00000   0.00000   0.00000
  62        9PY         0.00017   0.00133   0.00045  -0.00001   0.00000
  63        9PZ        -0.00027  -0.00004   0.00012   0.00017   0.00018
  64       10D 0       -0.00007   0.00008  -0.00024   0.00007   0.00070
  65       10D+1        0.00000   0.00000   0.00000   0.00000   0.00000
  66       10D-1        0.00000  -0.00011  -0.00004   0.00000   0.00000
  67       10D+2        0.00007  -0.00004   0.00012   0.00003  -0.00016
  68       10D-2        0.00000   0.00000   0.00000   0.00000   0.00000
  69       11D 0       -0.00022  -0.00003   0.00000   0.00092   0.00105
  70       11D+1        0.00000   0.00000   0.00000   0.00000   0.00000
  71       11D-1        0.00022   0.00257   0.00087  -0.00002   0.00002
  72       11D+2        0.00090  -0.00018   0.00053  -0.00112   0.00330
  73       11D-2        0.00000   0.00000   0.00000   0.00000   0.00000
  74       12D 0       -0.00011   0.00010  -0.00039  -0.00009  -0.00064
  75       12D+1        0.00000   0.00000   0.00000   0.00000   0.00000
  76       12D-1        0.00033   0.00243   0.00082  -0.00002   0.00001
  77       12D+2        0.00078  -0.00035   0.00103  -0.00086   0.00114
  78       12D-2        0.00000   0.00000   0.00000   0.00000   0.00000
  79       13F 0       -0.00015   0.00009  -0.00028  -0.00014   0.00038
  80       13F+1        0.00000   0.00000   0.00000   0.00000   0.00000
  81       13F-1        0.00000  -0.00007  -0.00002   0.00000   0.00000
  82       13F+2       -0.00002  -0.00004   0.00010  -0.00007  -0.00007
  83       13F-2        0.00000   0.00000   0.00000   0.00000   0.00000
  84       13F+3        0.00000   0.00000   0.00000   0.00000   0.00000
  85       13F-3        0.00000  -0.00003  -0.00001   0.00000   0.00000
  86       14F 0        0.00022  -0.00035   0.00103   0.00088  -0.00090
  87       14F+1        0.00000   0.00000   0.00000   0.00000   0.00000
  88       14F-1        0.00006   0.00145   0.00049   0.00000  -0.00001
  89       14F+2       -0.00006  -0.00021   0.00058   0.00034  -0.00097
  90       14F-2        0.00000   0.00000   0.00000   0.00000   0.00000
  91       14F+3        0.00000   0.00000   0.00000   0.00000   0.00000
  92       14F-3        0.00006   0.00074   0.00025   0.00000   0.00000
  93 3   Cl 1S         -0.14964  -0.13573   0.05257  -0.03767   0.03579
  94        2S          0.50477   0.46107  -0.18012   0.12854  -0.12214
  95        3S         -0.01512  -0.00788   0.00242  -0.00156   0.00082
  96        4S          0.03930   0.03819  -0.01449   0.01083  -0.01095
  97        5S         -0.00166  -0.00744   0.00212  -0.00352   0.00814
  98        6S          0.00004   0.00237   0.00173  -0.00078   0.00227
  99        7PX         0.00000   0.00000   0.00000   0.00000   0.00000
 100        7PY        -0.25499   0.56305  -0.18301   0.22133  -0.30865
 101        7PZ        -0.12997   0.36715  -0.08327   0.13608  -0.18051
 102        8PX         0.00000   0.00000   0.00000   0.00000   0.00000
 103        8PY         0.00442  -0.00967   0.00229  -0.00335   0.00518
 104        8PZ         0.00220  -0.00678   0.00084  -0.00212   0.00360
 105        9PX         0.00000   0.00000   0.00000   0.00000   0.00000
 106        9PY        -0.01451   0.03434  -0.01114   0.01378  -0.01979
 107        9PZ        -0.00744   0.02256  -0.00504   0.00848  -0.01174
 108       10PX         0.00000   0.00000   0.00000   0.00000   0.00000
 109       10PY         0.00200  -0.00040   0.00099  -0.00093   0.00310
 110       10PZ         0.00101  -0.00064   0.00025  -0.00099   0.00220
 111       11PX         0.00000   0.00000   0.00000   0.00000   0.00000
 112       11PY         0.00001   0.00007   0.00008  -0.00005   0.00020
 113       11PZ         0.00013   0.00023   0.00011  -0.00016   0.00019
 114       12D 0       -0.00005   0.00001   0.00000   0.00002   0.00000
 115       12D+1        0.00000   0.00000   0.00000   0.00000   0.00000
 116       12D-1        0.00015   0.00047  -0.00011   0.00024  -0.00034
 117       12D+2       -0.00008  -0.00038   0.00012  -0.00014   0.00022
 118       12D-2        0.00000   0.00000   0.00000   0.00000   0.00000
 119       13D 0       -0.00010  -0.00038  -0.00025   0.00009   0.00004
 120       13D+1        0.00000   0.00000   0.00000   0.00000   0.00000
 121       13D-1        0.00030  -0.00241   0.00014  -0.00090   0.00210
 122       13D+2       -0.00042   0.00151  -0.00063   0.00065  -0.00133
 123       13D-2        0.00000   0.00000   0.00000   0.00000   0.00000
 124       14D 0       -0.00007  -0.00009  -0.00007  -0.00009   0.00008
 125       14D+1        0.00000   0.00000   0.00000   0.00000   0.00000
 126       14D-1        0.00026   0.00020  -0.00020  -0.00016   0.00066
 127       14D+2       -0.00036  -0.00064  -0.00023   0.00006  -0.00053
 128       14D-2        0.00000   0.00000   0.00000   0.00000   0.00000
 129       15F 0       -0.00001   0.00000  -0.00004  -0.00002   0.00002
 130       15F+1        0.00000   0.00000   0.00000   0.00000   0.00000
 131       15F-1        0.00000  -0.00007  -0.00001   0.00004  -0.00002
 132       15F+2        0.00000   0.00005  -0.00002  -0.00004  -0.00001
 133       15F-2        0.00000   0.00000   0.00000   0.00000   0.00000
 134       15F+3        0.00000   0.00000   0.00000   0.00000   0.00000
 135       15F-3       -0.00003   0.00004  -0.00006   0.00003  -0.00005
 136       16F 0       -0.00002   0.00026   0.00016   0.00014  -0.00035
 137       16F+1        0.00000   0.00000   0.00000   0.00000   0.00000
 138       16F-1       -0.00001  -0.00044  -0.00014  -0.00013   0.00038
 139       16F+2       -0.00013   0.00062   0.00001   0.00029  -0.00060
 140       16F-2        0.00000   0.00000   0.00000   0.00000   0.00000
 141       16F+3        0.00000   0.00000   0.00000   0.00000   0.00000
 142       16F-3       -0.00011   0.00024  -0.00015   0.00008  -0.00024
 143 4   Cl 1S         -0.20060   0.07726   0.12192  -0.03782   0.03564
 144        2S          0.67681  -0.26151  -0.41538   0.12901  -0.12160
 145        3S         -0.02018   0.00485   0.00655  -0.00157   0.00080
 146        4S          0.05265  -0.02192  -0.03407   0.01087  -0.01090
 147        5S         -0.00200   0.00473   0.00609  -0.00354   0.00811
 148        6S         -0.00043  -0.00292  -0.00004  -0.00076   0.00226
 149        7PX         0.00000   0.00000   0.00000   0.00000   0.00000
 150        7PY         0.34211   0.34257   0.48098  -0.22255   0.30788
 151        7PZ        -0.19298  -0.24847  -0.28950   0.13897  -0.18302
 152        8PX         0.00000   0.00000   0.00000   0.00000   0.00000
 153        8PY        -0.00610  -0.00638  -0.00755   0.00337  -0.00516
 154        8PZ         0.00346   0.00499   0.00475  -0.00217   0.00362
 155        9PX         0.00000   0.00000   0.00000   0.00000   0.00000
 156        9PY         0.01946   0.02091   0.02932  -0.01385   0.01974
 157        9PZ        -0.01103  -0.01531  -0.01772   0.00866  -0.01189
 158       10PX         0.00000   0.00000   0.00000   0.00000   0.00000
 159       10PY        -0.00247   0.00024  -0.00102   0.00092  -0.00309
 160       10PZ         0.00139   0.00035   0.00056  -0.00099   0.00221
 161       11PX         0.00000   0.00000   0.00000   0.00000   0.00000
 162       11PY        -0.00005   0.00011  -0.00002   0.00005  -0.00020
 163       11PZ         0.00011  -0.00025  -0.00004  -0.00016   0.00019
 164       12D 0       -0.00006  -0.00001  -0.00001   0.00002   0.00000
 165       12D+1        0.00000   0.00000   0.00000   0.00000   0.00000
 166       12D-1       -0.00019   0.00032   0.00037  -0.00025   0.00035
 167       12D+2       -0.00010   0.00023   0.00032  -0.00014   0.00021
 168       12D-2        0.00000   0.00000   0.00000   0.00000   0.00000
 169       13D 0       -0.00004   0.00047   0.00004   0.00008   0.00006
 170       13D+1        0.00000   0.00000   0.00000   0.00000   0.00000
 171       13D-1       -0.00047  -0.00185  -0.00155   0.00091  -0.00211
 172       13D+2       -0.00053  -0.00083  -0.00138   0.00065  -0.00132
 173       13D-2        0.00000   0.00000   0.00000   0.00000   0.00000
 174       14D 0       -0.00009   0.00010  -0.00001  -0.00009   0.00008
 175       14D+1        0.00000   0.00000   0.00000   0.00000   0.00000
 176       14D-1       -0.00034   0.00005   0.00029   0.00015  -0.00066
 177       14D+2       -0.00032   0.00065   0.00020   0.00006  -0.00052
 178       14D-2        0.00000   0.00000   0.00000   0.00000   0.00000
 179       15F 0        0.00000   0.00002  -0.00003  -0.00002   0.00002
 180       15F+1        0.00000   0.00000   0.00000   0.00000   0.00000
 181       15F-1       -0.00001  -0.00006  -0.00003  -0.00004   0.00002
 182       15F+2        0.00000  -0.00003  -0.00004  -0.00004  -0.00001
 183       15F-2        0.00000   0.00000   0.00000   0.00000   0.00000
 184       15F+3        0.00000   0.00000   0.00000   0.00000   0.00000
 185       15F-3        0.00003   0.00000   0.00007  -0.00003   0.00005
 186       16F 0       -0.00006  -0.00030  -0.00003   0.00014  -0.00034
 187       16F+1        0.00000   0.00000   0.00000   0.00000   0.00000
 188       16F-1       -0.00004  -0.00044  -0.00015   0.00014  -0.00038
 189       16F+2       -0.00019  -0.00050  -0.00036   0.00029  -0.00060
 190       16F-2        0.00000   0.00000   0.00000   0.00000   0.00000
 191       16F+3        0.00000   0.00000   0.00000   0.00000   0.00000
 192       16F-3        0.00012   0.00010   0.00025  -0.00008   0.00024
                          11        12        13        14        15
     Eigenvalues --     2.00000   2.00000   1.98121   1.97618   1.97463
   1 1   O  1S          0.00003   0.00000  -0.18589  -0.06334   0.00021
   2        2S          0.00001   0.00000   0.48121   0.17130  -0.00058
   3        3S          0.00000   0.00000   0.13532   0.04921  -0.00017
   4        4S          0.00003   0.00000   0.29346   0.13526  -0.00054
   5        5S          0.00004   0.00000   0.01960   0.02330  -0.00017
   6        6PX         0.00000   0.00000   0.00000   0.00000   0.00000
   7        6PY         0.00000   0.00000  -0.00017   0.00045   0.04420
   8        6PZ         0.00000   0.00000  -0.00884   0.02882  -0.00012
   9        7PX         0.00000   0.00000   0.00000   0.00000   0.00000
  10        7PY         0.00000  -0.00001  -0.00022   0.00058   0.05502
  11        7PZ         0.00000   0.00000  -0.01532   0.03056  -0.00014
  12        8PX         0.00000   0.00000   0.00000   0.00000   0.00000
  13        8PY         0.00000  -0.00006  -0.00023   0.00036   0.04023
  14        8PZ         0.00003   0.00000   0.04917   0.02588  -0.00014
  15        9PX         0.00000   0.00000   0.00000   0.00000   0.00000
  16        9PY         0.00000  -0.00001  -0.00003   0.00000   0.00094
  17        9PZ         0.00000   0.00000   0.01376  -0.00041   0.00004
  18       10D 0        0.00000   0.00000   0.00497   0.00004   0.00000
  19       10D+1        0.00000   0.00000   0.00000   0.00000   0.00000
  20       10D-1        0.00000   0.00000   0.00001  -0.00003  -0.00212
  21       10D+2        0.00000   0.00000  -0.00001  -0.00002   0.00000
  22       10D-2        0.00000   0.00000   0.00000   0.00000   0.00000
  23       11D 0       -0.00001   0.00000   0.01088   0.00145   0.00001
  24       11D+1        0.00000   0.00000   0.00000   0.00000   0.00000
  25       11D-1        0.00000   0.00000   0.00003  -0.00008  -0.00539
  26       11D+2        0.00000   0.00000   0.00026   0.00101   0.00000
  27       11D-2        0.00000   0.00000   0.00000   0.00000   0.00000
  28       12D 0       -0.00002   0.00000  -0.01503  -0.00335   0.00005
  29       12D+1        0.00000   0.00000   0.00000   0.00000   0.00000
  30       12D-1        0.00000   0.00002   0.00005  -0.00001  -0.00400
  31       12D+2        0.00000   0.00000   0.00141   0.00135  -0.00001
  32       12D-2        0.00000   0.00000   0.00000   0.00000   0.00000
  33       13F 0        0.00000   0.00000  -0.00275  -0.00033   0.00000
  34       13F+1        0.00000   0.00000   0.00000   0.00000   0.00000
  35       13F-1        0.00000   0.00000  -0.00001   0.00002   0.00148
  36       13F+2        0.00000   0.00000   0.00021  -0.00005   0.00000
  37       13F-2        0.00000   0.00000   0.00000   0.00000   0.00000
  38       13F+3        0.00000   0.00000   0.00000   0.00000   0.00000
  39       13F-3        0.00000   0.00000   0.00000   0.00000   0.00008
  40       14F 0        0.00000   0.00000  -0.00008  -0.00058   0.00000
  41       14F+1        0.00000   0.00000   0.00000   0.00000   0.00000
  42       14F-1        0.00000   0.00000   0.00000   0.00000   0.00015
  43       14F+2        0.00000   0.00000  -0.00069  -0.00104   0.00001
  44       14F-2        0.00000   0.00000   0.00000   0.00000   0.00000
  45       14F+3        0.00000   0.00000   0.00000   0.00000   0.00000
  46       14F-3        0.00000   0.00000   0.00000   0.00001   0.00044
  47 2   C  1S         -0.00030   0.00001  -0.08453   0.04580  -0.00039
  48        2S          0.00003   0.00000   0.19470  -0.12679   0.00102
  49        3S          0.00002   0.00000   0.04633  -0.02639   0.00019
  50        4S         -0.00013   0.00001   0.00311  -0.05580   0.00046
  51        5S         -0.00005   0.00000  -0.00434  -0.02455   0.00020
  52        6PX         0.00000   0.00000   0.00000   0.00000   0.00000
  53        6PY         0.00000   0.00001  -0.00028   0.00114   0.07197
  54        6PZ        -0.00001   0.00000   0.06348   0.05761  -0.00045
  55        7PX         0.00000   0.00000   0.00000   0.00000   0.00000
  56        7PY         0.00000  -0.00004  -0.00045   0.00144   0.09744
  57        7PZ         0.00005   0.00000   0.04886   0.06691  -0.00068
  58        8PX         0.00000   0.00000   0.00000   0.00000   0.00000
  59        8PY         0.00000   0.00009  -0.00008   0.00004  -0.00737
  60        8PZ        -0.00001   0.00000  -0.01846  -0.00337   0.00013
  61        9PX         0.00000   0.00000   0.00000   0.00000   0.00000
  62        9PY         0.00000   0.00001   0.00001   0.00008   0.00606
  63        9PZ         0.00001   0.00000  -0.00737   0.00330  -0.00007
  64       10D 0        0.00000   0.00000   0.01554   0.00266   0.00004
  65       10D+1        0.00000   0.00000   0.00000   0.00000   0.00000
  66       10D-1        0.00000   0.00000   0.00002  -0.00012  -0.00595
  67       10D+2        0.00000   0.00000  -0.00270   0.00666  -0.00001
  68       10D-2        0.00000   0.00000   0.00000   0.00000   0.00000
  69       11D 0        0.00000   0.00000   0.00607  -0.00221   0.00012
  70       11D+1        0.00000   0.00000   0.00000   0.00000   0.00000
  71       11D-1        0.00000   0.00007   0.00010  -0.00029  -0.01931
  72       11D+2        0.00005   0.00000  -0.00340   0.01166  -0.00005
  73       11D-2        0.00000   0.00000   0.00000   0.00000   0.00000
  74       12D 0       -0.00003   0.00000  -0.01997  -0.00786   0.00001
  75       12D+1        0.00000   0.00000   0.00000   0.00000   0.00000
  76       12D-1        0.00000   0.00001   0.00004   0.00003   0.00455
  77       12D+2        0.00001   0.00000  -0.00113  -0.00271  -0.00002
  78       12D-2        0.00000   0.00000   0.00000   0.00000   0.00000
  79       13F 0        0.00000   0.00000   0.00593  -0.00205   0.00001
  80       13F+1        0.00000   0.00000   0.00000   0.00000   0.00000
  81       13F-1        0.00000   0.00000   0.00001   0.00001   0.00229
  82       13F+2       -0.00001   0.00000   0.00260  -0.00427   0.00004
  83       13F-2        0.00000   0.00000   0.00000   0.00000   0.00000
  84       13F+3        0.00000   0.00000   0.00000   0.00000   0.00000
  85       13F-3        0.00000   0.00001   0.00003  -0.00005  -0.00268
  86       14F 0       -0.00003   0.00000  -0.00658  -0.00485   0.00003
  87       14F+1        0.00000   0.00000   0.00000   0.00000   0.00000
  88       14F-1        0.00000   0.00002   0.00004   0.00001   0.00140
  89       14F+2       -0.00003   0.00000  -0.00282  -0.00586   0.00004
  90       14F-2        0.00000   0.00000   0.00000   0.00000   0.00000
  91       14F+3        0.00000   0.00000   0.00000   0.00000   0.00000
  92       14F-3        0.00000   0.00001   0.00003   0.00000   0.00003
  93 3   Cl 1S          0.67326  -0.73561   0.01138  -0.04815  -0.05157
  94        2S          0.00666  -0.00745  -0.04130   0.18056   0.19290
  95        3S          0.00011  -0.00012   0.09329  -0.38424  -0.41332
  96        4S          0.00014  -0.00016   0.01060  -0.04724  -0.05189
  97        5S          0.00001   0.00006   0.05020  -0.22777  -0.25382
  98        6S          0.00002   0.00006  -0.00330   0.01124   0.00600
  99        7PX         0.00000   0.00000   0.00000   0.00000   0.00000
 100        7PY        -0.00083   0.00048  -0.00759   0.01531   0.00084
 101        7PZ        -0.00043   0.00037  -0.00931   0.00165   0.00827
 102        8PX         0.00000   0.00000   0.00000   0.00000   0.00000
 103        8PY         0.00007  -0.00007   0.01301  -0.02043   0.01566
 104        8PZ         0.00005  -0.00005   0.02310   0.01011  -0.01136
 105        9PX         0.00000   0.00000   0.00000   0.00000   0.00000
 106        9PY        -0.00008   0.00006   0.00614  -0.00971   0.00636
 107        9PZ        -0.00005   0.00004   0.01008   0.00371  -0.00532
 108       10PX         0.00000   0.00000   0.00000   0.00000   0.00000
 109       10PY         0.00000   0.00007   0.00286   0.00263   0.01619
 110       10PZ        -0.00001   0.00004   0.00258   0.00974  -0.00092
 111       11PX         0.00000   0.00000   0.00000   0.00000   0.00000
 112       11PY         0.00000   0.00001  -0.00129   0.00386   0.00219
 113       11PZ         0.00000   0.00001   0.00099   0.00169   0.00264
 114       12D 0        0.00000   0.00000   0.00034   0.00152  -0.00092
 115       12D+1        0.00000   0.00000   0.00000   0.00000   0.00000
 116       12D-1        0.00000  -0.00001   0.00353  -0.00596  -0.00595
 117       12D+2        0.00000   0.00000  -0.00273   0.00562   0.00305
 118       12D-2        0.00000   0.00000   0.00000   0.00000   0.00000
 119       13D 0        0.00000   0.00000  -0.00055   0.00213  -0.00246
 120       13D+1        0.00000   0.00000   0.00000   0.00000   0.00000
 121       13D-1        0.00003  -0.00002   0.00371  -0.00513  -0.00486
 122       13D+2       -0.00001   0.00001  -0.00140   0.00606   0.00129
 123       13D-2        0.00000   0.00000   0.00000   0.00000   0.00000
 124       14D 0        0.00000   0.00000   0.00001  -0.00057  -0.00070
 125       14D+1        0.00000   0.00000   0.00000   0.00000   0.00000
 126       14D-1       -0.00001   0.00002  -0.00205   0.00148   0.00194
 127       14D+2        0.00001  -0.00002  -0.00086  -0.00204  -0.00301
 128       14D-2        0.00000   0.00000   0.00000   0.00000   0.00000
 129       15F 0        0.00000   0.00000  -0.00033   0.00144   0.00088
 130       15F+1        0.00000   0.00000   0.00000   0.00000   0.00000
 131       15F-1        0.00000   0.00000   0.00041  -0.00021  -0.00162
 132       15F+2        0.00000   0.00000  -0.00078   0.00226   0.00224
 133       15F-2        0.00000   0.00000   0.00000   0.00000   0.00000
 134       15F+3        0.00000   0.00000   0.00000   0.00000   0.00000
 135       15F-3        0.00000   0.00000  -0.00060   0.00186   0.00085
 136       16F 0        0.00000   0.00000  -0.00043   0.00008  -0.00049
 137       16F+1        0.00000   0.00000   0.00000   0.00000   0.00000
 138       16F-1        0.00000   0.00000  -0.00031   0.00022  -0.00025
 139       16F+2        0.00000   0.00000   0.00019   0.00020  -0.00102
 140       16F-2        0.00000   0.00000   0.00000   0.00000   0.00000
 141       16F+3        0.00000   0.00000   0.00000   0.00000   0.00000
 142       16F-3        0.00000   0.00000   0.00096   0.00006  -0.00074
 143 4   Cl 1S          0.73565   0.67321   0.01119  -0.04704   0.05269
 144        2S          0.00731   0.00684  -0.04061   0.17642  -0.19710
 145        3S          0.00012   0.00011   0.09175  -0.37539   0.42230
 146        4S          0.00016   0.00015   0.01038  -0.04616   0.05302
 147        5S          0.00000  -0.00006   0.04986  -0.22281   0.25956
 148        6S          0.00001  -0.00007  -0.00315   0.01079  -0.00603
 149        7PX         0.00000   0.00000   0.00000   0.00000   0.00000
 150        7PY         0.00086   0.00039   0.00744  -0.01505   0.00099
 151        7PZ        -0.00046  -0.00032  -0.00920   0.00148  -0.00820
 152        8PX         0.00000   0.00000   0.00000   0.00000   0.00000
 153        8PY        -0.00007  -0.00006  -0.01293   0.02053   0.01538
 154        8PZ         0.00006   0.00004   0.02305   0.01030   0.01092
 155        9PX         0.00000   0.00000   0.00000   0.00000   0.00000
 156        9PY         0.00009   0.00005  -0.00602   0.00965   0.00631
 157        9PZ        -0.00005  -0.00004   0.00993   0.00382   0.00510
 158       10PX         0.00000   0.00000   0.00000   0.00000   0.00000
 159       10PY         0.00001   0.00006  -0.00313  -0.00205   0.01603
 160       10PZ        -0.00002  -0.00004   0.00269   0.00963   0.00071
 161       11PX         0.00000   0.00000   0.00000   0.00000   0.00000
 162       11PY         0.00000   0.00001   0.00124  -0.00376   0.00225
 163       11PZ         0.00000   0.00000   0.00098   0.00164  -0.00266
 164       12D 0        0.00000   0.00000   0.00035   0.00146   0.00092
 165       12D+1        0.00000   0.00000   0.00000   0.00000   0.00000
 166       12D-1        0.00000   0.00000  -0.00346   0.00578  -0.00599
 167       12D+2        0.00000   0.00000  -0.00267   0.00544  -0.00310
 168       12D-2        0.00000   0.00000   0.00000   0.00000   0.00000
 169       13D 0        0.00000   0.00000  -0.00048   0.00216   0.00243
 170       13D+1        0.00000   0.00000   0.00000   0.00000   0.00000
 171       13D-1       -0.00003  -0.00002  -0.00378   0.00503  -0.00494
 172       13D+2       -0.00001  -0.00001  -0.00140   0.00600  -0.00140
 173       13D-2        0.00000   0.00000   0.00000   0.00000   0.00000
 174       14D 0        0.00000   0.00000  -0.00003  -0.00053   0.00067
 175       14D+1        0.00000   0.00000   0.00000   0.00000   0.00000
 176       14D-1        0.00001   0.00002   0.00199  -0.00140   0.00193
 177       14D+2        0.00001   0.00002  -0.00092  -0.00190   0.00298
 178       14D-2        0.00000   0.00000   0.00000   0.00000   0.00000
 179       15F 0        0.00000   0.00000  -0.00033   0.00139  -0.00087
 180       15F+1        0.00000   0.00000   0.00000   0.00000   0.00000
 181       15F-1        0.00000   0.00000  -0.00040   0.00020  -0.00163
 182       15F+2       -0.00001   0.00000  -0.00077   0.00218  -0.00224
 183       15F-2        0.00000   0.00000   0.00000   0.00000   0.00000
 184       15F+3        0.00000   0.00000   0.00000   0.00000   0.00000
 185       15F-3        0.00000   0.00000   0.00059  -0.00180   0.00086
 186       16F 0        0.00000   0.00000  -0.00044   0.00011   0.00048
 187       16F+1        0.00000   0.00000   0.00000   0.00000   0.00000
 188       16F-1        0.00000   0.00000   0.00027  -0.00024  -0.00025
 189       16F+2        0.00000   0.00000   0.00016   0.00024   0.00100
 190       16F-2        0.00000   0.00000   0.00000   0.00000   0.00000
 191       16F+3        0.00000   0.00000   0.00000   0.00000   0.00000
 192       16F-3        0.00000   0.00000  -0.00094  -0.00009  -0.00073
                          16        17        18        19        20
     Eigenvalues --     1.96279   1.95794   1.95160   1.94908   1.94744
   1 1   O  1S          0.03976   0.00029  -0.00837   0.00000  -0.00014
   2        2S         -0.12887  -0.00101   0.02157   0.00000   0.00037
   3        3S         -0.04228  -0.00034   0.00675   0.00000   0.00009
   4        4S         -0.23876  -0.00233   0.02410   0.00000  -0.00007
   5        5S         -0.05978  -0.00061   0.02447   0.00000  -0.00005
   6        6PX         0.00000   0.00000   0.00000   0.02808   0.00000
   7        6PY        -0.00288   0.29843  -0.00004   0.00000   0.11188
   8        6PZ        -0.29518  -0.00274  -0.00685   0.00000  -0.00122
   9        7PX         0.00000   0.00000   0.00000   0.03554   0.00000
  10        7PY        -0.00358   0.37060  -0.00007   0.00000   0.13675
  11        7PZ        -0.34951  -0.00325  -0.00974   0.00000  -0.00148
  12        8PX         0.00000   0.00000   0.00000   0.01766   0.00000
  13        8PY        -0.00270   0.27151  -0.00008   0.00000   0.09540
  14        8PZ        -0.15261  -0.00134   0.00001   0.00000  -0.00042
  15        9PX         0.00000   0.00000   0.00000  -0.01198   0.00000
  16        9PY        -0.00040   0.03779   0.00004   0.00000   0.01528
  17        9PZ         0.00122   0.00006   0.00059   0.00000   0.00008
  18       10D 0        0.01320   0.00012   0.00018   0.00000   0.00006
  19       10D+1        0.00000   0.00000   0.00000  -0.00316   0.00000
  20       10D-1        0.00008  -0.00899   0.00000   0.00000  -0.00202
  21       10D+2       -0.00002   0.00000   0.00058   0.00000  -0.00001
  22       10D-2        0.00000   0.00000   0.00000   0.00000   0.00000
  23       11D 0        0.02659   0.00026   0.00132   0.00000   0.00011
  24       11D+1        0.00000   0.00000   0.00000  -0.00881   0.00000
  25       11D-1        0.00024  -0.02619  -0.00002   0.00000  -0.00254
  26       11D+2        0.00117   0.00002   0.00046   0.00000   0.00001
  27       11D-2        0.00000   0.00000   0.00000  -0.00001   0.00000
  28       12D 0       -0.00318  -0.00001  -0.00107   0.00000  -0.00013
  29       12D+1        0.00000   0.00000   0.00000  -0.00701   0.00000
  30       12D-1        0.00019  -0.01708   0.00001   0.00000  -0.00140
  31       12D+2        0.00220   0.00003   0.00222   0.00000   0.00006
  32       12D-2        0.00000   0.00000   0.00000   0.00003   0.00000
  33       13F 0       -0.00481  -0.00004  -0.00003   0.00000  -0.00002
  34       13F+1        0.00000   0.00000   0.00000   0.00168   0.00000
  35       13F-1       -0.00005   0.00562   0.00000   0.00000   0.00095
  36       13F+2       -0.00068   0.00000  -0.00016   0.00000   0.00000
  37       13F-2        0.00000   0.00000   0.00000   0.00000   0.00000
  38       13F+3        0.00000   0.00000   0.00000  -0.00001   0.00000
  39       13F-3       -0.00001   0.00091   0.00000   0.00000   0.00046
  40       14F 0       -0.00411  -0.00004  -0.00023   0.00000  -0.00002
  41       14F+1        0.00000   0.00000   0.00000   0.00111   0.00000
  42       14F-1       -0.00004   0.00423   0.00002   0.00000  -0.00009
  43       14F+2       -0.00164  -0.00001   0.00034   0.00000  -0.00003
  44       14F-2        0.00000   0.00000   0.00000   0.00000   0.00000
  45       14F+3        0.00000   0.00000   0.00000   0.00073   0.00000
  46       14F-3       -0.00001   0.00102  -0.00001   0.00000   0.00013
  47 2   C  1S         -0.11372  -0.00122  -0.03653   0.00000   0.00073
  48        2S          0.30964   0.00330   0.10268   0.00000  -0.00211
  49        3S          0.08100   0.00087   0.02535   0.00000  -0.00044
  50        4S          0.10741   0.00124   0.05425   0.00000  -0.00183
  51        5S          0.00890   0.00008   0.01351   0.00000  -0.00030
  52        6PX         0.00000   0.00000   0.00000   0.11152   0.00000
  53        6PY        -0.00107   0.14415  -0.00020   0.00000   0.01498
  54        6PZ         0.14801   0.00129  -0.05062   0.00000   0.00201
  55        7PX         0.00000   0.00000   0.00000   0.15388   0.00000
  56        7PY        -0.00154   0.18765  -0.00031   0.00000   0.02292
  57        7PZ         0.15690   0.00133  -0.07281   0.00000   0.00260
  58        8PX         0.00000   0.00000   0.00000   0.04546   0.00000
  59        8PY        -0.00026   0.01608  -0.00024   0.00000   0.00474
  60        8PZ        -0.00186   0.00022  -0.02638   0.00000   0.00023
  61        9PX         0.00000   0.00000   0.00000   0.01285   0.00000
  62        9PY         0.00011  -0.00877  -0.00003   0.00000  -0.00997
  63        9PZ        -0.00254  -0.00008  -0.01083   0.00000  -0.00007
  64       10D 0        0.01570   0.00017   0.01074   0.00000   0.00008
  65       10D+1        0.00000   0.00000   0.00000  -0.00464   0.00000
  66       10D-1       -0.00021   0.02077   0.00009   0.00000   0.00395
  67       10D+2        0.00002   0.00005   0.00392   0.00000   0.00007
  68       10D-2        0.00000   0.00000   0.00000  -0.00012   0.00000
  69       11D 0        0.00124   0.00010   0.03304   0.00000  -0.00001
  70       11D+1        0.00000   0.00000   0.00000  -0.02718   0.00000
  71       11D-1       -0.00021   0.02012   0.00019   0.00000   0.00295
  72       11D+2       -0.00459   0.00007   0.01537   0.00000   0.00017
  73       11D-2        0.00000   0.00000   0.00000  -0.00026   0.00000
  74       12D 0        0.00020  -0.00011  -0.02340   0.00000  -0.00041
  75       12D+1        0.00000   0.00000   0.00000  -0.00825   0.00000
  76       12D-1        0.00017  -0.01534  -0.00021   0.00000   0.01443
  77       12D+2        0.00435  -0.00003  -0.01773   0.00000  -0.00010
  78       12D-2        0.00000   0.00000   0.00000  -0.00001   0.00000
  79       13F 0        0.00919   0.00008  -0.00066   0.00000  -0.00002
  80       13F+1        0.00000   0.00000   0.00000   0.00252   0.00000
  81       13F-1       -0.00003   0.00509  -0.00005   0.00000   0.00859
  82       13F+2        0.00174   0.00002   0.00181   0.00000  -0.00009
  83       13F-2        0.00000   0.00000   0.00000   0.00004   0.00000
  84       13F+3        0.00000   0.00000   0.00000  -0.00487   0.00000
  85       13F-3        0.00004  -0.00292   0.00000   0.00000   0.00152
  86       14F 0       -0.00999  -0.00007  -0.00442   0.00000  -0.00022
  87       14F+1        0.00000   0.00000   0.00000  -0.00052   0.00000
  88       14F-1        0.00005   0.00162   0.00005   0.00000   0.01442
  89       14F+2       -0.00323  -0.00002  -0.00093   0.00000  -0.00012
  90       14F-2        0.00000   0.00000   0.00000  -0.00001   0.00000
  91       14F+3        0.00000   0.00000   0.00000  -0.00311   0.00000
  92       14F-3        0.00003   0.00076   0.00002   0.00000   0.00346
  93 3   Cl 1S         -0.01217   0.01509  -0.01065   0.00000  -0.00107
  94        2S          0.04711  -0.05745   0.04048   0.00000   0.00427
  95        3S         -0.09604   0.12325  -0.08795   0.00000  -0.00814
  96        4S         -0.01286   0.01712  -0.01374   0.00000  -0.00176
  97        5S         -0.08198   0.11907  -0.08324   0.00000  -0.00919
  98        6S         -0.00846   0.00817  -0.02271   0.00000  -0.01239
  99        7PX         0.00000   0.00000   0.00000  -0.14828   0.00000
 100        7PY        -0.00374   0.00476  -0.10721   0.00000   0.09037
 101        7PZ        -0.01520   0.04403   0.10845   0.00000  -0.13973
 102        8PX         0.00000   0.00000   0.00000   0.34939   0.00000
 103        8PY         0.00472   0.00171   0.24728   0.00000  -0.21107
 104        8PZ         0.03294  -0.09622  -0.25931   0.00000   0.33160
 105        9PX         0.00000   0.00000   0.00000   0.16312   0.00000
 106        9PY         0.00425  -0.00343   0.11688   0.00000  -0.10215
 107        9PZ         0.01713  -0.04810  -0.12404   0.00000   0.15728
 108       10PX         0.00000   0.00000   0.00000   0.19597   0.00000
 109       10PY        -0.01567   0.03031   0.12681   0.00000  -0.13379
 110       10PZ         0.00597  -0.03810  -0.17629   0.00000   0.20776
 111       11PX         0.00000   0.00000   0.00000   0.00071   0.00000
 112       11PY        -0.00094   0.00443   0.00028   0.00000  -0.00639
 113       11PZ        -0.00002   0.00280  -0.00746   0.00000   0.01050
 114       12D 0        0.00320  -0.00566  -0.00704   0.00000   0.00103
 115       12D+1        0.00000   0.00000   0.00000   0.00564   0.00000
 116       12D-1        0.00585  -0.01045   0.00160   0.00000  -0.00147
 117       12D+2       -0.00106   0.00450  -0.00962   0.00000   0.00084
 118       12D-2        0.00000   0.00000   0.00000   0.01086   0.00000
 119       13D 0        0.00218  -0.00866  -0.00856   0.00000  -0.00071
 120       13D+1        0.00000   0.00000   0.00000   0.00830   0.00000
 121       13D-1        0.00538  -0.00697   0.00105   0.00000  -0.00097
 122       13D+2        0.00164   0.00054  -0.01164   0.00000  -0.00135
 123       13D-2        0.00000   0.00000   0.00000   0.01658   0.00000
 124       14D 0        0.00228  -0.00600  -0.00792   0.00000   0.00136
 125       14D+1        0.00000   0.00000   0.00000   0.00171   0.00000
 126       14D-1       -0.00037  -0.00168  -0.00348   0.00000   0.00147
 127       14D+2        0.00318  -0.00297  -0.00568   0.00000   0.00037
 128       14D-2        0.00000   0.00000   0.00000   0.00526   0.00000
 129       15F 0        0.00032  -0.00019  -0.00195   0.00000   0.00081
 130       15F+1        0.00000   0.00000   0.00000   0.00049   0.00000
 131       15F-1        0.00152  -0.00362  -0.00406   0.00000   0.00275
 132       15F+2       -0.00038   0.00237  -0.00131   0.00000   0.00034
 133       15F-2        0.00000   0.00000   0.00000   0.00444   0.00000
 134       15F+3        0.00000   0.00000   0.00000  -0.00441   0.00000
 135       15F-3        0.00033   0.00054  -0.00327   0.00000   0.00098
 136       16F 0       -0.00159  -0.00133  -0.00040   0.00000  -0.00050
 137       16F+1        0.00000   0.00000   0.00000  -0.00050   0.00000
 138       16F-1       -0.00024  -0.00049  -0.00206   0.00000   0.00148
 139       16F+2       -0.00018  -0.00213  -0.00050   0.00000  -0.00059
 140       16F-2        0.00000   0.00000   0.00000   0.00216   0.00000
 141       16F+3        0.00000   0.00000   0.00000  -0.00241   0.00000
 142       16F-3        0.00116  -0.00160  -0.00108   0.00000  -0.00056
 143 4   Cl 1S         -0.01177  -0.01527  -0.01062   0.00000   0.00140
 144        2S          0.04561   0.05816   0.04034   0.00000  -0.00550
 145        3S         -0.09276  -0.12460  -0.08763   0.00000   0.01095
 146        4S         -0.01247  -0.01731  -0.01370   0.00000   0.00221
 147        5S         -0.07863  -0.11974  -0.08262   0.00000   0.01218
 148        6S         -0.00823  -0.00809  -0.02268   0.00000   0.01304
 149        7PX         0.00000   0.00000   0.00000  -0.14741   0.00000
 150        7PY         0.00338   0.00418   0.10740   0.00000   0.08970
 151        7PZ        -0.01458  -0.04380   0.10822   0.00000   0.14140
 152        8PX         0.00000   0.00000   0.00000   0.34735   0.00000
 153        8PY        -0.00424   0.00293  -0.24788   0.00000  -0.21000
 154        8PZ         0.03184   0.09576  -0.25863   0.00000  -0.33509
 155        9PX         0.00000   0.00000   0.00000   0.16217   0.00000
 156        9PY        -0.00386  -0.00281  -0.11715   0.00000  -0.10163
 157        9PZ         0.01643   0.04785  -0.12378   0.00000  -0.15899
 158       10PX         0.00000   0.00000   0.00000   0.19515   0.00000
 159       10PY         0.01525   0.03090  -0.12757   0.00000  -0.13480
 160       10PZ         0.00588   0.03774  -0.17595   0.00000  -0.20950
 161       11PX         0.00000   0.00000   0.00000   0.00076   0.00000
 162       11PY         0.00085   0.00443  -0.00035   0.00000  -0.00665
 163       11PZ         0.00006  -0.00272  -0.00755   0.00000  -0.01048
 164       12D 0        0.00310   0.00568  -0.00697   0.00000  -0.00093
 165       12D+1        0.00000   0.00000   0.00000   0.00559   0.00000
 166       12D-1       -0.00559  -0.01041  -0.00164   0.00000  -0.00108
 167       12D+2       -0.00096  -0.00445  -0.00950   0.00000  -0.00049
 168       12D-2        0.00000   0.00000   0.00000  -0.01068   0.00000
 169       13D 0        0.00213   0.00865  -0.00848   0.00000   0.00080
 170       13D+1        0.00000   0.00000   0.00000   0.00830   0.00000
 171       13D-1       -0.00527  -0.00696  -0.00115   0.00000  -0.00059
 172       13D+2        0.00167  -0.00049  -0.01157   0.00000   0.00172
 173       13D-2        0.00000   0.00000   0.00000  -0.01641   0.00000
 174       14D 0        0.00225   0.00603  -0.00796   0.00000  -0.00147
 175       14D+1        0.00000   0.00000   0.00000   0.00175   0.00000
 176       14D-1        0.00038  -0.00169   0.00341   0.00000   0.00154
 177       14D+2        0.00314   0.00294  -0.00570   0.00000  -0.00050
 178       14D-2        0.00000   0.00000   0.00000  -0.00526   0.00000
 179       15F 0        0.00032   0.00023  -0.00198   0.00000  -0.00076
 180       15F+1        0.00000   0.00000   0.00000   0.00052   0.00000
 181       15F-1       -0.00144  -0.00359   0.00400   0.00000   0.00276
 182       15F+2       -0.00034  -0.00231  -0.00134   0.00000  -0.00022
 183       15F-2        0.00000   0.00000   0.00000  -0.00440   0.00000
 184       15F+3        0.00000   0.00000   0.00000  -0.00433   0.00000
 185       15F-3       -0.00033   0.00051   0.00323   0.00000   0.00088
 186       16F 0       -0.00159   0.00133  -0.00044   0.00000   0.00046
 187       16F+1        0.00000   0.00000   0.00000  -0.00046   0.00000
 188       16F-1        0.00016  -0.00050   0.00207   0.00000   0.00149
 189       16F+2       -0.00022   0.00213  -0.00053   0.00000   0.00058
 190       16F-2        0.00000   0.00000   0.00000  -0.00222   0.00000
 191       16F+3        0.00000   0.00000   0.00000  -0.00243   0.00000
 192       16F-3       -0.00115  -0.00162   0.00111   0.00000  -0.00056
                          21        22        23        24        25
     Eigenvalues --     1.94735   1.94726   1.93714   1.93117   0.06663
   1 1   O  1S         -0.02741   0.00000   0.00022   0.00000   0.00000
   2        2S          0.07403   0.00000  -0.00059   0.00000   0.00000
   3        3S          0.02089   0.00000  -0.00016   0.00000   0.00000
   4        4S          0.02947   0.00000  -0.00021   0.00000   0.00000
   5        5S          0.00092   0.00000  -0.00005   0.00000   0.00000
   6        6PX         0.00000   0.00028   0.00000   0.29503  -0.34424
   7        6PY        -0.00307   0.00000  -0.14073   0.00000   0.00000
   8        6PZ        -0.10303   0.00000   0.00091   0.00000   0.00000
   9        7PX         0.00000   0.00036   0.00000   0.36974  -0.39621
  10        7PY        -0.00376   0.00000  -0.17497   0.00000   0.00000
  11        7PZ        -0.12581   0.00000   0.00110   0.00000   0.00000
  12        8PX         0.00000   0.00026   0.00000   0.24754  -0.07276
  13        8PY        -0.00269   0.00000  -0.12138   0.00000   0.00000
  14        8PZ        -0.04137   0.00000   0.00022   0.00000   0.00000
  15        9PX         0.00000   0.00004   0.00000   0.02599  -0.00386
  16        9PY        -0.00044   0.00000  -0.02183   0.00000   0.00000
  17        9PZ         0.00337   0.00000  -0.00009   0.00000   0.00000
  18       10D 0        0.00480   0.00000  -0.00005   0.00000   0.00000
  19       10D+1        0.00000  -0.00002   0.00000  -0.01035  -0.01308
  20       10D-1        0.00003   0.00000   0.00021   0.00000   0.00000
  21       10D+2        0.00003   0.00000   0.00000   0.00000   0.00000
  22       10D-2        0.00000  -0.00039   0.00000   0.00000   0.00001
  23       11D 0        0.00938   0.00000  -0.00007   0.00000   0.00000
  24       11D+1        0.00000  -0.00005   0.00000  -0.02822  -0.01093
  25       11D-1        0.00002   0.00000  -0.00022   0.00000   0.00000
  26       11D+2        0.00209   0.00000   0.00000   0.00000   0.00000
  27       11D-2        0.00000  -0.00174   0.00000   0.00001   0.00004
  28       12D 0       -0.01201   0.00000   0.00018   0.00000   0.00000
  29       12D+1        0.00000  -0.00003   0.00000  -0.01256   0.01614
  30       12D-1        0.00000   0.00000  -0.00745   0.00000   0.00000
  31       12D+2        0.00225   0.00000  -0.00002   0.00000   0.00000
  32       12D-2        0.00000  -0.00383   0.00000   0.00000   0.00006
  33       13F 0       -0.00190   0.00000   0.00002   0.00000   0.00000
  34       13F+1        0.00000   0.00001   0.00000   0.00540   0.00389
  35       13F-1        0.00000   0.00000   0.00023   0.00000   0.00000
  36       13F+2       -0.00048   0.00000   0.00000   0.00000   0.00000
  37       13F-2        0.00000   0.00034   0.00000   0.00000   0.00001
  38       13F+3        0.00000   0.00000   0.00000   0.00105  -0.00255
  39       13F-3       -0.00001   0.00000  -0.00045   0.00000   0.00000
  40       14F 0       -0.00198   0.00000   0.00000   0.00000   0.00000
  41       14F+1        0.00000   0.00001   0.00000   0.00347  -0.00537
  42       14F-1       -0.00001   0.00000  -0.00072   0.00000   0.00000
  43       14F+2       -0.00234   0.00000   0.00002   0.00000   0.00000
  44       14F-2        0.00000   0.00120   0.00000  -0.00001  -0.00002
  45       14F+3        0.00000   0.00000   0.00000   0.00088  -0.00076
  46       14F-3        0.00000   0.00000  -0.00019   0.00000   0.00000
  47 2   C  1S          0.07603   0.00000  -0.00069   0.00000   0.00000
  48        2S         -0.21774   0.00000   0.00187   0.00000   0.00000
  49        3S         -0.04685   0.00000   0.00035   0.00000   0.00000
  50        4S         -0.16378   0.00000   0.00157   0.00000   0.00000
  51        5S         -0.02106   0.00000   0.00004   0.00000   0.00000
  52        6PX         0.00000   0.00038   0.00000   0.17238   0.30799
  53        6PY         0.00134   0.00000   0.14020   0.00000   0.00000
  54        6PZ         0.17302   0.00000  -0.00172   0.00000   0.00000
  55        7PX         0.00000   0.00046   0.00000   0.21966   0.46705
  56        7PY         0.00170   0.00000   0.19917   0.00000   0.00000
  57        7PZ         0.22132   0.00000  -0.00244   0.00000   0.00000
  58        8PX         0.00000  -0.00010   0.00000   0.08367   0.15537
  59        8PY         0.00027   0.00000   0.02841   0.00000   0.00000
  60        8PZ         0.03445   0.00000  -0.00021   0.00000   0.00000
  61        9PX         0.00000  -0.00004   0.00000  -0.00179   0.01053
  62        9PY         0.00015   0.00000  -0.00026   0.00000   0.00000
  63        9PZ        -0.00730   0.00000   0.00016   0.00000   0.00000
  64       10D 0        0.01307   0.00000  -0.00003   0.00000   0.00000
  65       10D+1        0.00000   0.00002   0.00000   0.02390  -0.00032
  66       10D-1       -0.00040   0.00000  -0.02901   0.00000   0.00000
  67       10D+2        0.00972   0.00000   0.00000   0.00000   0.00000
  68       10D-2        0.00000  -0.01051   0.00000   0.00003  -0.00008
  69       11D 0        0.00956   0.00000   0.00012   0.00000   0.00000
  70       11D+1        0.00000   0.00007   0.00000   0.03723   0.02333
[...]
  73       11D-2        0.00000   0.00000  -0.00006   0.00000   0.00000
  74       12D 0       -0.01560   1.25692   0.00000  -0.00562  -0.84775
  75       12D+1        0.00000   0.00000   0.75138   0.00000   0.00000
  76       12D-1        7.08104  -0.06123   0.00000   2.25687   0.96539
  77       12D+2       -0.02065   1.45292   0.00000   0.02540  -0.40587
  78       12D-2        0.00000   0.00000   0.00472   0.00000   0.00000
  79       13F 0        0.00010  -0.05392   0.00000  -0.00105  -0.01582
  80       13F+1        0.00000   0.00000  -0.09364   0.00000   0.00000
  81       13F-1       -0.02132  -0.00136   0.00000   0.07725  -0.01766
  82       13F+2       -0.00012  -0.03894   0.00000  -0.00066   0.00331
  83       13F-2        0.00000   0.00000   0.00026   0.00000   0.00000
  84       13F+3        0.00000   0.00000   0.03849   0.00000   0.00000
  85       13F-3       -0.00605   0.00031   0.00000  -0.01125   0.01752
  86       14F 0        0.00175   0.10812   0.00000  -0.00125   0.01386
  87       14F+1        0.00000   0.00000  -0.17962   0.00000   0.00000
  88       14F-1        0.45618  -0.00229   0.00000   0.20060  -0.20503
  89       14F+2        0.00380   0.26335   0.00000   0.00002  -0.06371
  90       14F-2        0.00000   0.00000   0.00044   0.00000   0.00000
  91       14F+3        0.00000   0.00000   0.01317   0.00000   0.00000
  92       14F-3        0.19700  -0.00526   0.00000   0.19426  -0.09868
  93 3   Cl 1S          0.02920  -0.01531   0.00000   0.01157   0.00674
  94        2S          0.46767  -0.22998   0.00000   0.14917   0.11654
  95        3S          1.17597  -0.60214   0.00000   0.44030   0.27448
  96        4S         -0.23100   0.09530   0.00000   0.01796  -0.10194
  97        5S         -6.93058   1.90114   0.00000  -3.61758  -0.74935
  98        6S         -3.03524   1.66841   0.00000 -12.85734  -0.34906
  99        7PX         0.00000   0.00000  -0.01665   0.00000   0.00000
 100        7PY         0.00643   0.00352   0.00000   0.01317   0.00068
 101        7PZ        -0.01146  -0.00722   0.00000  -0.00162   0.00942
 102        8PX         0.00000   0.00000  -0.21306   0.00000   0.00000
 103        8PY        -0.01166   0.05682   0.00000   0.21640   0.09387
 104        8PZ        -0.29078  -0.08347   0.00000  -0.01329   0.18221
 105        9PX         0.00000   0.00000   0.06454   0.00000   0.00000
 106        9PY        -0.01831  -0.02952   0.00000  -0.05014   0.00039
 107        9PZ         0.04609   0.01240   0.00000   0.00881  -0.03414
 108       10PX         0.00000   0.00000   0.93095   0.00000   0.00000
 109       10PY        -3.43491   0.51412   0.00000  -4.72133  -0.28737
 110       10PZ        -1.12292   1.99289   0.00000  -3.39950  -0.52420
 111       11PX         0.00000   0.00000  -2.25266   0.00000   0.00000
 112       11PY        -0.51126  -0.66396   0.00000  -2.23176  -3.21909
 113       11PZ         0.27407  -2.01034   0.00000  -1.59175   0.92967
 114       12D 0        0.00662  -0.04145   0.00000   0.02117   0.01070
 115       12D+1        0.00000   0.00000  -0.02629   0.00000   0.00000
 116       12D-1        0.05141  -0.08423   0.00000  -0.01894  -0.01661
 117       12D+2       -0.01066   0.07013   0.00000   0.03399   0.05657
 118       12D-2        0.00000   0.00000  -0.00985   0.00000   0.00000
 119       13D 0       -0.11708   0.17137   0.00000  -0.12715  -0.02449
 120       13D+1        0.00000   0.00000   0.08159   0.00000   0.00000
 121       13D-1       -0.39304   0.37858   0.00000  -0.05111   0.14442
 122       13D+2        0.13000  -0.28871   0.00000  -0.07601  -0.26240
 123       13D-2        0.00000   0.00000   0.03538   0.00000   0.00000
 124       14D 0        0.57431   0.26556   0.00000  -0.05444   0.18302
 125       14D+1        0.00000   0.00000  -0.07702   0.00000   0.00000
 126       14D-1       -0.19540   0.15107   0.00000  -1.55239  -0.19904
 127       14D+2        0.26979   0.36443   0.00000   1.04602   0.58123
 128       14D-2        0.00000   0.00000   0.19401   0.00000   0.00000
 129       15F 0       -0.03269   0.00001   0.00000  -0.00895   0.01169
 130       15F+1        0.00000   0.00000  -0.00463   0.00000   0.00000
 131       15F-1       -0.00429  -0.04199   0.00000   0.04606  -0.00703
 132       15F+2       -0.00162   0.02829   0.00000  -0.01236   0.00191
 133       15F-2        0.00000   0.00000  -0.01575   0.00000   0.00000
 134       15F+3        0.00000   0.00000   0.04295   0.00000   0.00000
 135       15F-3        0.03211  -0.00222   0.00000   0.00743   0.01089
 136       16F 0        0.13639   0.00032   0.00000   0.03869  -0.02237
 137       16F+1        0.00000   0.00000  -0.00185   0.00000   0.00000
 138       16F-1       -0.05867   0.18335   0.00000  -0.18826   0.05154
 139       16F+2        0.10244  -0.13391   0.00000   0.11015  -0.02686
 140       16F-2        0.00000   0.00000   0.03486   0.00000   0.00000
 141       16F+3        0.00000   0.00000  -0.10388   0.00000   0.00000
 142       16F-3       -0.03153  -0.03652   0.00000   0.02255  -0.01360
 143 4   Cl 1S         -0.02891  -0.01459   0.00000  -0.01198  -0.01084
 144        2S         -0.46289  -0.21990   0.00000  -0.15488  -0.18754
 145        3S         -1.16383  -0.57426   0.00000  -0.45602  -0.44145
 146        4S          0.22964   0.09435   0.00000  -0.01656   0.15715
 147        5S          6.80031   1.66827   0.00000   3.64932   1.20324
 148        6S          2.95332   1.34758   0.00000  12.93283  -2.26803
 149        7PX         0.00000   0.00000  -0.01677   0.00000   0.00000
 150        7PY         0.00690  -0.00341   0.00000   0.01316  -0.00228
 151        7PZ         0.01100  -0.00792   0.00000   0.00134  -0.00023
 152        8PX         0.00000   0.00000  -0.21382   0.00000   0.00000
 153        8PY         0.00079  -0.05254   0.00000   0.21619   0.04449
 154        8PZ         0.28104  -0.09575   0.00000   0.00847  -0.03745
 155        9PX         0.00000   0.00000   0.06504   0.00000   0.00000
 156        9PY        -0.01971   0.02894   0.00000  -0.04954   0.01081
 157        9PZ        -0.04483   0.01519   0.00000  -0.00825   0.00010
 158       10PX         0.00000   0.00000   0.92779   0.00000   0.00000
 159       10PY        -3.35233  -0.34646   0.00000  -4.74001  -0.68531
 160       10PZ         1.11624   1.87939   0.00000   3.47367  -0.29647
 161       11PX         0.00000   0.00000  -2.25599   0.00000   0.00000
 162       11PY        -0.51039   0.69044   0.00000  -2.21079  -2.73062
 163       11PZ        -0.32046  -2.02943   0.00000   1.58522  -0.34934
 164       12D 0       -0.00861  -0.04127   0.00000  -0.02132  -0.00104
 165       12D+1        0.00000   0.00000  -0.02672   0.00000   0.00000
 166       12D-1        0.05146   0.08396   0.00000  -0.01723  -0.01344
 167       12D+2        0.01055   0.07007   0.00000  -0.03185  -0.05874
 168       12D-2        0.00000   0.00000   0.00988   0.00000   0.00000
 169       13D 0        0.12626   0.16779   0.00000   0.12821  -0.01587
 170       13D+1        0.00000   0.00000   0.08333   0.00000   0.00000
 171       13D-1       -0.38590  -0.36880   0.00000  -0.05946   0.12205
 172       13D+2       -0.12377  -0.28363   0.00000   0.06701   0.25224
 173       13D-2        0.00000   0.00000  -0.03589   0.00000   0.00000
 174       14D 0       -0.57702   0.27015   0.00000   0.07712  -0.33215
 175       14D+1        0.00000   0.00000  -0.07970   0.00000   0.00000
 176       14D-1       -0.19102  -0.10740   0.00000  -1.56699  -0.11663
 177       14D+2       -0.25482   0.38431   0.00000  -1.03781  -0.82254
 178       14D-2        0.00000   0.00000  -0.19190   0.00000   0.00000
 179       15F 0        0.03346  -0.00136   0.00000   0.00842  -0.01367
 180       15F+1        0.00000   0.00000  -0.00469   0.00000   0.00000
 181       15F-1       -0.00329   0.04173   0.00000   0.04720   0.00002
 182       15F+2        0.00194   0.02891   0.00000   0.01297  -0.00371
 183       15F-2        0.00000   0.00000   0.01655   0.00000   0.00000
 184       15F+3        0.00000   0.00000   0.04331   0.00000   0.00000
 185       15F-3        0.03214   0.00094   0.00000   0.00724   0.01029
 186       16F 0       -0.13607   0.00533   0.00000  -0.03709   0.02500
 187       16F+1        0.00000   0.00000  -0.00186   0.00000   0.00000
 188       16F-1       -0.06204  -0.17940   0.00000  -0.19386   0.04756
 189       16F+2       -0.10090  -0.13111   0.00000  -0.11412   0.02080
 190       16F-2        0.00000   0.00000  -0.03658   0.00000   0.00000
 191       16F+3        0.00000   0.00000  -0.10457   0.00000   0.00000
 192       16F-3       -0.03327   0.03758   0.00000   0.02450   0.01014
                         191       192
     Eigenvalues --     0.00000   0.00000
   1 1   O  1S          0.06879   0.07109
   2        2S          0.36768   0.36357
   3        3S          0.01017  -0.01519
   4        4S         -4.48413  -2.96837
   5        5S         -9.13035  -8.49861
   6        6PX         0.00000   0.00000
   7        6PY         0.00210  -0.00002
   8        6PZ        -0.00941   0.00432
   9        7PX         0.00000   0.00000
  10        7PY         0.00066  -0.00019
  11        7PZ         0.14777  -0.01020
  12        8PX         0.00000   0.00000
  13        8PY         0.20697  -0.01179
  14        8PZ         2.65405   2.14345
  15        9PX         0.00000   0.00000
  16        9PY        -1.01408   0.01101
  17        9PZ        -1.34249  -0.06236
  18       10D 0        0.03724   0.04109
  19       10D+1        0.00000   0.00000
  20       10D-1        0.00871  -0.00015
  21       10D+2       -0.02714  -0.01408
  22       10D-2        0.00000   0.00000
  23       11D 0       -0.30626  -0.21747
  24       11D+1        0.00000   0.00000
  25       11D-1       -0.04624   0.00134
  26       11D+2        0.07731   0.04340
  27       11D-2        0.00000   0.00000
  28       12D 0       -0.39605  -0.30868
  29       12D+1        0.00000   0.00000
  30       12D-1       -0.03720   0.00510
  31       12D+2       -0.43372  -0.13493
  32       12D-2        0.00000   0.00000
  33       13F 0        0.00874  -0.00967
  34       13F+1        0.00000   0.00000
  35       13F-1       -0.00607   0.00015
  36       13F+2       -0.01456  -0.00614
  37       13F-2        0.00000   0.00000
  38       13F+3        0.00000   0.00000
  39       13F-3        0.00124   0.00005
  40       14F 0        0.12506   0.11632
  41       14F+1        0.00000   0.00000
  42       14F-1        0.03247  -0.00133
  43       14F+2        0.06665   0.02616
  44       14F-2        0.00000   0.00000
  45       14F+3        0.00000   0.00000
  46       14F-3       -0.00110  -0.00014
  47 2   C  1S          0.19961   0.02751
  48        2S          1.10418   0.24015
  49        3S         -0.04640   0.10622
  50        4S          6.41883  12.31960
  51        5S         -2.19845  19.34342
  52        6PX         0.00000   0.00000
  53        6PY        -0.00132  -0.00035
  54        6PZ         0.01905   0.00919
  55        7PX         0.00000   0.00000
  56        7PY        -0.04044   0.00179
  57        7PZ         1.01597   0.59813
  58        8PX         0.00000   0.00000
  59        8PY        -0.16362  -0.04100
  60        8PZ         2.69295  -0.75965
  61        9PX         0.00000   0.00000
  62        9PY         2.09387  -0.07026
  63        9PZ         7.00667  -0.52551
  64       10D 0        0.05997   0.04590
  65       10D+1        0.00000   0.00000
  66       10D-1       -0.00157  -0.00026
  67       10D+2        0.01267  -0.02101
  68       10D-2        0.00000   0.00000
  69       11D 0        0.49770   0.21057
  70       11D+1        0.00000   0.00000
  71       11D-1       -0.13711   0.00614
  72       11D+2       -0.06012  -0.02664
  73       11D-2        0.00000   0.00000
  74       12D 0        3.13875   1.64807
  75       12D+1        0.00000   0.00000
  76       12D-1        0.28434   0.00482
  77       12D+2        1.47822  -0.73736
  78       12D-2        0.00000   0.00000
  79       13F 0        0.05889  -0.01168
  80       13F+1        0.00000   0.00000
  81       13F-1       -0.00464   0.00028
  82       13F+2       -0.01128  -0.00025
  83       13F-2        0.00000   0.00000
  84       13F+3        0.00000   0.00000
  85       13F-3        0.00489  -0.00015
  86       14F 0       -0.04430  -0.04319
  87       14F+1        0.00000   0.00000
  88       14F-1       -0.05690   0.00360
  89       14F+2        0.23280   0.02310
  90       14F-2        0.00000   0.00000
  91       14F+3        0.00000   0.00000
  92       14F-3       -0.02695   0.00113
  93 3   Cl 1S          0.00981   0.00051
  94        2S          0.16864  -0.01351
  95        3S          0.39885   0.00706
  96        4S         -0.13153   0.06716
  97        5S         -1.08731  -0.58144
  98        6S          4.72628 -10.30656
  99        7PX         0.00000   0.00000
 100        7PY        -0.00540   0.01055
 101        7PZ        -0.01536   0.00555
 102        8PX         0.00000   0.00000
 103        8PY        -0.06491   0.18235
 104        8PZ        -0.23095   0.09978
 105        9PX         0.00000   0.00000
 106        9PY         0.02019  -0.03747
 107        9PZ         0.05755  -0.02004
 108       10PX         0.00000   0.00000
 109       10PY        -0.94228  -2.93361
 110       10PZ         1.43585  -1.34065
 111       11PX         0.00000   0.00000
 112       11PY         0.01332  -1.62988
 113       11PZ        -0.89887  -1.34055
 114       12D 0       -0.01606   0.00188
 115       12D+1        0.00000   0.00000
 116       12D-1        0.00284  -0.00182
 117       12D+2        0.01928  -0.02332
 118       12D-2        0.00000   0.00000
 119       13D 0        0.07209   0.00899
 120       13D+1        0.00000   0.00000
 121       13D-1       -0.00898  -0.00568
 122       13D+2       -0.05040   0.10256
 123       13D-2        0.00000   0.00000
 124       14D 0        0.34333   0.14196
 125       14D+1        0.00000   0.00000
 126       14D-1        0.09471  -0.76252
 127       14D+2        0.65448   0.64947
 128       14D-2        0.00000   0.00000
 129       15F 0        0.00603  -0.01648
 130       15F+1        0.00000   0.00000
 131       15F-1        0.01298   0.00748
 132       15F+2        0.00218  -0.04119
 133       15F-2        0.00000   0.00000
 134       15F+3        0.00000   0.00000
 135       15F-3        0.00110  -0.03474
 136       16F 0       -0.00911   0.05432
 137       16F+1        0.00000   0.00000
 138       16F-1        0.00196  -0.01934
 139       16F+2        0.01045   0.13763
 140       16F-2        0.00000   0.00000
 141       16F+3        0.00000   0.00000
 142       16F-3        0.04600   0.11730
 143 4   Cl 1S          0.00507   0.00047
 144        2S          0.08702  -0.01365
 145        3S          0.20633   0.00582
 146        4S         -0.06212   0.06590
 147        5S         -0.54950  -0.55128
 148        6S          4.27242 -10.14997
 149        7PX         0.00000   0.00000
 150        7PY         0.00484  -0.01036
 151        7PZ        -0.01799   0.00573
 152        8PX         0.00000   0.00000
 153        8PY         0.10127  -0.18005
 154        8PZ        -0.29206   0.10254
 155        9PX         0.00000   0.00000
 156        9PY        -0.01669   0.03675
 157        9PZ         0.06682  -0.02076
 158       10PX         0.00000   0.00000
 159       10PY         0.66185   2.88303
 160       10PZ         1.50213  -1.32459
 161       11PX         0.00000   0.00000
 162       11PY        -1.65661   1.64674
 163       11PZ        -1.21938  -1.32365
 164       12D 0       -0.01930   0.00182
 165       12D+1        0.00000   0.00000
 166       12D-1       -0.01152   0.00190
 167       12D+2       -0.01235  -0.02290
 168       12D-2        0.00000   0.00000
 169       13D 0        0.07360   0.01006
 170       13D+1        0.00000   0.00000
 171       13D-1        0.08462   0.00399
 172       13D+2        0.09037   0.10034
 173       13D-2        0.00000   0.00000
 174       14D 0        0.20656   0.14086
 175       14D+1        0.00000   0.00000
 176       14D-1       -0.18347   0.75575
 177       14D+2        0.26958   0.64462
 178       14D-2        0.00000   0.00000
 179       15F 0       -0.00087  -0.01648
 180       15F+1        0.00000   0.00000
 181       15F-1       -0.01459  -0.00774
 182       15F+2        0.00033  -0.04120
 183       15F-2        0.00000   0.00000
 184       15F+3        0.00000   0.00000
 185       15F-3        0.00535   0.03434
 186       16F 0        0.00423   0.05457
 187       16F+1        0.00000   0.00000
 188       16F-1        0.02408   0.01880
 189       16F+2        0.02466   0.13729
 190       16F-2        0.00000   0.00000
 191       16F+3        0.00000   0.00000
 192       16F-3       -0.04833  -0.11642
          Condensed to atoms (all electrons):
              1          2          3          4
     1  O    8.036580   0.435737  -0.075955  -0.074667
     2  C    0.435737   4.972050   0.133473   0.135874
     3  Cl  -0.075955   0.133473  17.040336  -0.099856
     4  Cl  -0.074667   0.135874  -0.099856  17.041825
 Mulliken atomic charges:
              1
     1  O   -0.321694
     2  C    0.322866
     3  Cl   0.002003
     4  Cl  -0.003175
 Sum of Mulliken atomic charges =   0.00000
 Mulliken charges with hydrogens summed into heavy atoms:
              1
     1  O   -0.321694
     2  C    0.322866
     3  Cl   0.002003
     4  Cl  -0.003175
 Sum of Mulliken charges with hydrogens summed into heavy atoms =   0.00000
 Electronic spatial extent (au):  <R**2>=            611.8798
 Charge=              0.0000 electrons
 Dipole moment (field-independent basis, Debye):
    X=              0.0000    Y=             -0.0172    Z=             -1.2514  Tot=              1.2515
 Quadrupole moment (field-independent basis, Debye-Ang):
   XX=            -35.0749   YY=            -34.3519   ZZ=            -36.2891
   XY=              0.0000   XZ=              0.0000   YZ=              0.0151
 Traceless Quadrupole moment (field-independent basis, Debye-Ang):
   XX=              0.1637   YY=              0.8867   ZZ=             -1.0504
   XY=              0.0000   XZ=              0.0000   YZ=              0.0151
 Octapole moment (field-independent basis, Debye-Ang**2):
  XXX=              0.0000  YYY=             -0.1095  ZZZ=            105.8422  XYY=              0.0000
  XXY=             -0.0201  XXZ=             35.9256  XZZ=              0.0000  YZZ=             -0.0052
  YYZ=             29.5631  XYZ=              0.0000
 Hexadecapole moment (field-independent basis, Debye-Ang**3):
 XXXX=            -37.1065 YYYY=           -328.9965 ZZZZ=           -381.0553 XXXY=              0.0000
 XXXZ=              0.0000 YYYX=              0.0000 YYYZ=              0.6236 ZZZX=              0.0000
 ZZZY=              0.4701 XXYY=            -65.2267 XXZZ=            -70.7013 YYZZ=           -106.6043
 XXYZ=              0.2058 YYXZ=              0.0000 ZZXY=              0.0000
 N-N= 1.919536141129D+02 E-N=-2.838144305064D+03  KE= 1.032432030339D+03
 1\1\GINC-TRAPISTA\SP\RQCISD-FC\Aug-CC-pVTZ\C1Cl2O1\BRUNS\27-Nov-2021\0
 \\# qcisd/aug-cc-pvtz nosymm density=current output=wfn\\cl2co-wavefun
 ction\\0,1\O,0,0.,0.,0.683397\C,0,0.,0.,-0.494687\Cl,0,0.,-1.44687,-1.
 459805\Cl,0,0.,1.44687,-1.469805\\Version=EM64L-G09RevB.01\HF=-1031.80
 2836\MP2=-1032.5821242\MP3=-1032.6012129\MP4D=-1032.620849\MP4DQ=-1032
 .5983518\MP4SDQ=-1032.6073065\QCISD=-1032.605583\RMSD=4.733e-09\Dipole
 =0.,-0.0067502,-0.4923203\Quadrupole=0.1217192,0.6592438,-0.780963,0.,
 0.,0.0112471\PG=CS [SG(C1Cl2O1)]\\@

 Writing a WFN file to GAUSSIAN.wfn.


 IT TAKES GREATER CHARACTER TO CARRY OFF GOOD FORTUNE THAN BAD.
                     FRENCH PROVERB.
 Job cpu time:  0 days  2 hours  3 minutes 29.5 seconds.
 File lengths (MBytes):  RWF=  18183 Int=      0 D2E=      0 Chk=      3 Scr=      1
 Normal termination of Gaussian 09 at Sat Nov 27 16:20:22 2021.
