 cl2co-wavefunction
GAUSSIAN            192 MOL ORBITALS    372 PRIMITIVES        4 NUCLEI
  O    1    (CENTRE  1)   0.00000000  0.00000000  1.29143317  CHARGE =  8.0
  C    2    (CENTRE  2)   0.00000000  0.00000000 -0.91592569  CHARGE =  6.0
  Cl   3    (CENTRE  3)   0.00000000 -2.73418805 -2.77752892  CHARGE = 17.0
  Cl   4    (CENTRE  4)   0.00000000  2.73418805 -2.77752892  CHARGE = 17.0
CENTRE ASSIGNMENTS    1  1  1  1  1  1  1  1  1  1  1  1  1  1  1  1  1  1  1  1
CENTRE ASSIGNMENTS    1  1  1  1  1  1  1  1  1  1  1  1  1  1  1  1  1  1  1  1
CENTRE ASSIGNMENTS    1  1  1  1  1  1  1  1  1  1  1  1  1  1  1  1  1  1  1  1
CENTRE ASSIGNMENTS    1  1  1  1  1  1  1  1  1  1  1  1  2  2  2  2  2  2  2  2
CENTRE ASSIGNMENTS    2  2  2  2  2  2  2  2  2  2  2  2  2  2  2  2  2  2  2  2
CENTRE ASSIGNMENTS    2  2  2  2  2  2  2  2  2  2  2  2  2  2  2  2  2  2  2  2
CENTRE ASSIGNMENTS    2  2  2  2  2  2  2  2  2  2  2  2  2  2  2  2  2  2  2  2
CENTRE ASSIGNMENTS    2  2  2  2  3  3  3  3  3  3  3  3  3  3  3  3  3  3  3  3
CENTRE ASSIGNMENTS    3  3  3  3  3  3  3  3  3  3  3  3  3  3  3  3  3  3  3  3
CENTRE ASSIGNMENTS    3  3  3  3  3  3  3  3  3  3  3  3  3  3  3  3  3  3  3  3
CENTRE ASSIGNMENTS    3  3  3  3  3  3  3  3  3  3  3  3  3  3  3  3  3  3  3  3
CENTRE ASSIGNMENTS    3  3  3  3  3  3  3  3  3  3  3  3  3  3  3  3  3  3  3  3
CENTRE ASSIGNMENTS    3  3  3  3  3  3  3  3  3  3  3  3  3  3  3  3  3  3  4  4
CENTRE ASSIGNMENTS    4  4  4  4  4  4  4  4  4  4  4  4  4  4  4  4  4  4  4  4
CENTRE ASSIGNMENTS    4  4  4  4  4  4  4  4  4  4  4  4  4  4  4  4  4  4  4  4
CENTRE ASSIGNMENTS    4  4  4  4  4  4  4  4  4  4  4  4  4  4  4  4  4  4  4  4
CENTRE ASSIGNMENTS    4  4  4  4  4  4  4  4  4  4  4  4  4  4  4  4  4  4  4  4
CENTRE ASSIGNMENTS    4  4  4  4  4  4  4  4  4  4  4  4  4  4  4  4  4  4  4  4
CENTRE ASSIGNMENTS    4  4  4  4  4  4  4  4  4  4  4  4
TYPE ASSIGNMENTS      1  1  1  1  1  1  1  1  1  1  1  1  1  1  1  1  2  2  2  3
TYPE ASSIGNMENTS      3  3  4  4  4  2  3  4  2  3  4  2  3  4  5  6  7  8  9 10
TYPE ASSIGNMENTS      5  6  7  8  9 10  5  6  7  8  9 10 11 12 13 17 14 15 18 19
TYPE ASSIGNMENTS     16 20 11 12 13 17 14 15 18 19 16 20  1  1  1  1  1  1  1  1
TYPE ASSIGNMENTS      1  1  1  1  1  1  1  1  2  2  2  3  3  3  4  4  4  2  3  4
TYPE ASSIGNMENTS      2  3  4  2  3  4  5  6  7  8  9 10  5  6  7  8  9 10  5  6
TYPE ASSIGNMENTS      7  8  9 10 11 12 13 17 14 15 18 19 16 20 11 12 13 17 14 15
TYPE ASSIGNMENTS     18 19 16 20  1  1  1  1  1  1  1  1  1  1  1  1  1  1  1  1
TYPE ASSIGNMENTS      1  1  1  1  1  1  1  1  1  1  1  1  1  1  1  2  2  2  2  2
TYPE ASSIGNMENTS      2  3  3  3  3  3  3  4  4  4  4  4  4  2  2  2  2  2  2  3
TYPE ASSIGNMENTS      3  3  3  3  3  4  4  4  4  4  4  2  3  4  2  3  4  2  3  4
TYPE ASSIGNMENTS      5  6  7  8  9 10  5  6  7  8  9 10  5  6  7  8  9 10 11 12
TYPE ASSIGNMENTS     13 17 14 15 18 19 16 20 11 12 13 17 14 15 18 19 16 20  1  1
TYPE ASSIGNMENTS      1  1  1  1  1  1  1  1  1  1  1  1  1  1  1  1  1  1  1  1
TYPE ASSIGNMENTS      1  1  1  1  1  1  1  1  1  2  2  2  2  2  2  3  3  3  3  3
TYPE ASSIGNMENTS      3  4  4  4  4  4  4  2  2  2  2  2  2  3  3  3  3  3  3  4
TYPE ASSIGNMENTS      4  4  4  4  4  2  3  4  2  3  4  2  3  4  5  6  7  8  9 10
TYPE ASSIGNMENTS      5  6  7  8  9 10  5  6  7  8  9 10 11 12 13 17 14 15 18 19
TYPE ASSIGNMENTS     16 20 11 12 13 17 14 15 18 19 16 20
EXPONENTS  0.1533000D+05 0.2299000D+04 0.5224000D+03 0.1473000D+03 0.4755000D+02
EXPONENTS  0.1676000D+02 0.6207000D+01 0.5224000D+03 0.1473000D+03 0.4755000D+02
EXPONENTS  0.1676000D+02 0.6207000D+01 0.6882000D+00 0.1752000D+01 0.2384000D+00
EXPONENTS  0.7376000D-01 0.3446000D+02 0.7749000D+01 0.2280000D+01 0.3446000D+02
EXPONENTS  0.7749000D+01 0.2280000D+01 0.3446000D+02 0.7749000D+01 0.2280000D+01
EXPONENTS  0.7156000D+00 0.7156000D+00 0.7156000D+00 0.2140000D+00 0.2140000D+00
EXPONENTS  0.2140000D+00 0.5974000D-01 0.5974000D-01 0.5974000D-01 0.2314000D+01
EXPONENTS  0.2314000D+01 0.2314000D+01 0.2314000D+01 0.2314000D+01 0.2314000D+01
EXPONENTS  0.6450000D+00 0.6450000D+00 0.6450000D+00 0.6450000D+00 0.6450000D+00
EXPONENTS  0.6450000D+00 0.2140000D+00 0.2140000D+00 0.2140000D+00 0.2140000D+00
EXPONENTS  0.2140000D+00 0.2140000D+00 0.1428000D+01 0.1428000D+01 0.1428000D+01
EXPONENTS  0.1428000D+01 0.1428000D+01 0.1428000D+01 0.1428000D+01 0.1428000D+01
EXPONENTS  0.1428000D+01 0.1428000D+01 0.5000000D+00 0.5000000D+00 0.5000000D+00
EXPONENTS  0.5000000D+00 0.5000000D+00 0.5000000D+00 0.5000000D+00 0.5000000D+00
EXPONENTS  0.5000000D+00 0.5000000D+00 0.8236000D+04 0.1235000D+04 0.2808000D+03
EXPONENTS  0.7927000D+02 0.2559000D+02 0.8997000D+01 0.3319000D+01 0.2808000D+03
EXPONENTS  0.7927000D+02 0.2559000D+02 0.8997000D+01 0.3319000D+01 0.3643000D+00
EXPONENTS  0.9059000D+00 0.1285000D+00 0.4402000D-01 0.1871000D+02 0.4133000D+01
EXPONENTS  0.1200000D+01 0.1871000D+02 0.4133000D+01 0.1200000D+01 0.1871000D+02
EXPONENTS  0.4133000D+01 0.1200000D+01 0.3827000D+00 0.3827000D+00 0.3827000D+00
EXPONENTS  0.1209000D+00 0.1209000D+00 0.1209000D+00 0.3569000D-01 0.3569000D-01
EXPONENTS  0.3569000D-01 0.1097000D+01 0.1097000D+01 0.1097000D+01 0.1097000D+01
EXPONENTS  0.1097000D+01 0.1097000D+01 0.3180000D+00 0.3180000D+00 0.3180000D+00
EXPONENTS  0.3180000D+00 0.3180000D+00 0.3180000D+00 0.1000000D+00 0.1000000D+00
EXPONENTS  0.1000000D+00 0.1000000D+00 0.1000000D+00 0.1000000D+00 0.7610000D+00
EXPONENTS  0.7610000D+00 0.7610000D+00 0.7610000D+00 0.7610000D+00 0.7610000D+00
EXPONENTS  0.7610000D+00 0.7610000D+00 0.7610000D+00 0.7610000D+00 0.2680000D+00
EXPONENTS  0.2680000D+00 0.2680000D+00 0.2680000D+00 0.2680000D+00 0.2680000D+00
EXPONENTS  0.2680000D+00 0.2680000D+00 0.2680000D+00 0.2680000D+00 0.4561000D+06
EXPONENTS  0.6833000D+05 0.1555000D+05 0.4405000D+04 0.1439000D+04 0.5204000D+03
EXPONENTS  0.2031000D+03 0.8396000D+02 0.3620000D+02 0.1583000D+02 0.6334000D+01
EXPONENTS  0.4405000D+04 0.1439000D+04 0.5204000D+03 0.2031000D+03 0.8396000D+02
EXPONENTS  0.3620000D+02 0.1583000D+02 0.6334000D+01 0.2694000D+01 0.1439000D+04
EXPONENTS  0.2031000D+03 0.8396000D+02 0.3620000D+02 0.1583000D+02 0.6334000D+01
EXPONENTS  0.2694000D+01 0.4313000D+00 0.9768000D+00 0.1625000D+00 0.5910000D-01
EXPONENTS  0.6633000D+03 0.1568000D+03 0.4998000D+02 0.1842000D+02 0.7240000D+01
EXPONENTS  0.2922000D+01 0.6633000D+03 0.1568000D+03 0.4998000D+02 0.1842000D+02
EXPONENTS  0.7240000D+01 0.2922000D+01 0.6633000D+03 0.1568000D+03 0.4998000D+02
EXPONENTS  0.1842000D+02 0.7240000D+01 0.2922000D+01 0.1568000D+03 0.4998000D+02
EXPONENTS  0.1842000D+02 0.7240000D+01 0.2922000D+01 0.3818000D+00 0.1568000D+03
EXPONENTS  0.4998000D+02 0.1842000D+02 0.7240000D+01 0.2922000D+01 0.3818000D+00
EXPONENTS  0.1568000D+03 0.4998000D+02 0.1842000D+02 0.7240000D+01 0.2922000D+01
EXPONENTS  0.3818000D+00 0.1022000D+01 0.1022000D+01 0.1022000D+01 0.1301000D+00
EXPONENTS  0.1301000D+00 0.1301000D+00 0.4190000D-01 0.4190000D-01 0.4190000D-01
EXPONENTS  0.1046000D+01 0.1046000D+01 0.1046000D+01 0.1046000D+01 0.1046000D+01
EXPONENTS  0.1046000D+01 0.3440000D+00 0.3440000D+00 0.3440000D+00 0.3440000D+00
EXPONENTS  0.3440000D+00 0.3440000D+00 0.1350000D+00 0.1350000D+00 0.1350000D+00
EXPONENTS  0.1350000D+00 0.1350000D+00 0.1350000D+00 0.7060000D+00 0.7060000D+00
EXPONENTS  0.7060000D+00 0.7060000D+00 0.7060000D+00 0.7060000D+00 0.7060000D+00
EXPONENTS  0.7060000D+00 0.7060000D+00 0.7060000D+00 0.3120000D+00 0.3120000D+00
EXPONENTS  0.3120000D+00 0.3120000D+00 0.3120000D+00 0.3120000D+00 0.3120000D+00
EXPONENTS  0.3120000D+00 0.3120000D+00 0.3120000D+00 0.4561000D+06 0.6833000D+05
EXPONENTS  0.1555000D+05 0.4405000D+04 0.1439000D+04 0.5204000D+03 0.2031000D+03
EXPONENTS  0.8396000D+02 0.3620000D+02 0.1583000D+02 0.6334000D+01 0.4405000D+04
EXPONENTS  0.1439000D+04 0.5204000D+03 0.2031000D+03 0.8396000D+02 0.3620000D+02
EXPONENTS  0.1583000D+02 0.6334000D+01 0.2694000D+01 0.1439000D+04 0.2031000D+03
EXPONENTS  0.8396000D+02 0.3620000D+02 0.1583000D+02 0.6334000D+01 0.2694000D+01
EXPONENTS  0.4313000D+00 0.9768000D+00 0.1625000D+00 0.5910000D-01 0.6633000D+03
EXPONENTS  0.1568000D+03 0.4998000D+02 0.1842000D+02 0.7240000D+01 0.2922000D+01
EXPONENTS  0.6633000D+03 0.1568000D+03 0.4998000D+02 0.1842000D+02 0.7240000D+01
EXPONENTS  0.2922000D+01 0.6633000D+03 0.1568000D+03 0.4998000D+02 0.1842000D+02
EXPONENTS  0.7240000D+01 0.2922000D+01 0.1568000D+03 0.4998000D+02 0.1842000D+02
EXPONENTS  0.7240000D+01 0.2922000D+01 0.3818000D+00 0.1568000D+03 0.4998000D+02
EXPONENTS  0.1842000D+02 0.7240000D+01 0.2922000D+01 0.3818000D+00 0.1568000D+03
EXPONENTS  0.4998000D+02 0.1842000D+02 0.7240000D+01 0.2922000D+01 0.3818000D+00
EXPONENTS  0.1022000D+01 0.1022000D+01 0.1022000D+01 0.1301000D+00 0.1301000D+00
EXPONENTS  0.1301000D+00 0.4190000D-01 0.4190000D-01 0.4190000D-01 0.1046000D+01
EXPONENTS  0.1046000D+01 0.1046000D+01 0.1046000D+01 0.1046000D+01 0.1046000D+01
EXPONENTS  0.3440000D+00 0.3440000D+00 0.3440000D+00 0.3440000D+00 0.3440000D+00
EXPONENTS  0.3440000D+00 0.1350000D+00 0.1350000D+00 0.1350000D+00 0.1350000D+00
EXPONENTS  0.1350000D+00 0.1350000D+00 0.7060000D+00 0.7060000D+00 0.7060000D+00
EXPONENTS  0.7060000D+00 0.7060000D+00 0.7060000D+00 0.7060000D+00 0.7060000D+00
EXPONENTS  0.7060000D+00 0.7060000D+00 0.3120000D+00 0.3120000D+00 0.3120000D+00
EXPONENTS  0.3120000D+00 0.3120000D+00 0.3120000D+00 0.3120000D+00 0.3120000D+00
EXPONENTS  0.3120000D+00 0.3120000D+00
MO    1     MO 0.0        OCC NO =    2.0000387  ORB. ENERGY =    0.000000
  0.12028830D-10  0.22419761D-10  0.38015855D-10  0.57532954D-10  0.71767825D-10
  0.61587471D-10  0.23584730D-10  0.14653712D-14  0.15722471D-13  0.57955989D-13
  0.16945991D-12  0.20420744D-12 -0.24598950D-12  0.11738113D-11  0.46782825D-12
  0.48671681D-12 -0.23401130D-12 -0.22691224D-12 -0.15307366D-12 -0.86603601D-03
 -0.83976361D-03 -0.56649957D-03  0.24517957D-11  0.23774171D-11  0.16037915D-11
 -0.70097832D-13 -0.93398205D-03  0.84355978D-12 -0.21789208D-13 -0.74198353D-03
  0.68484429D-12 -0.64882627D-15 -0.18796840D-04  0.13145406D-13  0.19060076D-12
 -0.29506540D-12  0.10446464D-12 -0.23596100D-14 -0.30847772D-13 -0.18095355D-03
 -0.11233818D-12  0.34312770D-12 -0.23078952D-12  0.26739675D-14  0.14191560D-13
 -0.93378147D-04  0.87281546D-13  0.24419356D-13 -0.11170090D-12 -0.16573203D-13
  0.53818439D-14  0.10161029D-03  0.55898320D-14 -0.14615254D-03  0.26872390D-13
 -0.30164249D-13  0.22268013D-03 -0.43062894D-14  0.13394753D-13  0.21577750D-03
 -0.76310880D-13 -0.92162085D-13 -0.19185802D-15 -0.12177531D-04  0.45398980D-13
  0.85184358D-14 -0.20155953D-03  0.40935379D-13 -0.79428618D-14  0.23809213D-03
 -0.17713232D-12  0.27322539D-13  0.59300514D-11  0.11054810D-10  0.18684136D-10
  0.28085741D-10  0.34498302D-10  0.29115350D-10  0.10948132D-10 -0.43857543D-14
 -0.32780796D-13 -0.12250932D-12 -0.34178192D-12 -0.45789355D-12  0.54068690D-12
  0.77873432D-12 -0.11399203D-12  0.12061219D-12  0.15516572D-12  0.14547773D-12
  0.10358881D-12  0.10841966D-02  0.10165032D-02  0.72381083D-03  0.14124858D-11
  0.13242952D-11  0.94297706D-12  0.44522130D-13  0.12579053D-03  0.11427931D-11
  0.52044449D-14  0.72693940D-04 -0.34701687D-12 -0.95363819D-16 -0.93671475D-05
 -0.33103838D-13 -0.12815875D-12  0.97712613D-12 -0.84896738D-12  0.12387679D-12
 -0.47610038D-13  0.14519477D-03  0.13828792D-12 -0.22030036D-12  0.82012441D-13
 -0.34392415D-14  0.12323393D-13  0.90699495D-04  0.35775182D-15  0.17021493D-12
 -0.17057268D-12  0.74136516D-14 -0.50439276D-15  0.53151261D-04 -0.40247534D-14
  0.25028691D-03  0.19732617D-12  0.52834325D-14  0.43548581D-04 -0.25869439D-12
  0.67908277D-14 -0.79440931D-03 -0.33328412D-12 -0.34029304D-13  0.14291632D-14
 -0.25137766D-03 -0.10804485D-12 -0.61154436D-14  0.25294258D-04  0.13753506D-12
  0.18279541D-14  0.72883872D-03  0.18659950D-12  0.36994164D-13 -0.86337010D-04
 -0.16152733D-03 -0.27908340D-03 -0.45242699D-03 -0.68705379D-03 -0.95494013D-03
 -0.11353506D-02 -0.10114098D-02 -0.50228750D-03 -0.80864038D-04 -0.85316336D-06
 -0.71852283D-06 -0.23968719D-04 -0.83526187D-04 -0.30079132D-03 -0.66305704D-03
 -0.93337031D-03  0.44524806D-04  0.12214771D-02  0.72225178D-03  0.30480666D-06
  0.36919530D-05  0.76991787D-05  0.22079904D-04  0.11465787D-05 -0.95219255D-04
 -0.24602827D-03  0.20045225D-03  0.29798649D-04 -0.97653477D-04 -0.61449789D-04
  0.47986353D-09  0.63209253D-09  0.69729701D-09  0.57915976D-09  0.30754990D-09
  0.79349483D-10 -0.46968713D+01 -0.61868783D+01 -0.68250952D+01 -0.56687760D+01
 -0.30102774D+01 -0.77666729D+00  0.67461151D+01  0.88862117D+01  0.98028825D+01
  0.81420614D+01  0.43236606D+01  0.11155270D+01 -0.22477292D-13  0.21729600D-12
  0.30641004D-12  0.43824741D-12 -0.22192232D-14 -0.40191421D-12  0.23791539D-03
 -0.23000129D-02 -0.32432582D-02 -0.46387172D-02  0.23489811D-04  0.42541412D-02
 -0.33152475D-03  0.32049680D-02  0.45193394D-02  0.64638509D-02 -0.32732031D-04
 -0.59279609D-02  0.31068627D-11 -0.30136528D-01  0.43508755D-01 -0.25207133D-13
  0.34062527D-03 -0.55368279D-03 -0.86093340D-15  0.11083986D-04 -0.17535079D-04
 -0.14811595D-04 -0.74356727D-03  0.75837886D-03  0.67037586D-13  0.27680730D-13
  0.67254449D-03  0.59557891D-04  0.42000673D-03 -0.47956462D-03 -0.28300567D-13
 -0.19592259D-13 -0.33573636D-03  0.53905534D-05 -0.29972577D-05 -0.23932956D-05
  0.24614836D-14  0.40087003D-14 -0.44955205D-05  0.28257840D-14 -0.15017602D-04
 -0.13797040D-05  0.44766506D-14  0.19064968D-04  0.36317322D-04 -0.12954003D-13
  0.25987837D-04 -0.32178210D-04 -0.73581490D-16 -0.54193725D-16  0.72698467D-04
 -0.42665154D-04 -0.54324928D-14  0.12485016D-04  0.51175613D-04  0.55950740D-14
 -0.23058042D-03  0.76819850D-04 -0.79283500D-14  0.86336996D-04  0.16152731D-03
  0.27908336D-03  0.45242692D-03  0.68705369D-03  0.95493998D-03  0.11353505D-02
  0.10114096D-02  0.50228742D-03  0.80864025D-04  0.85316323D-06  0.71852273D-06
  0.23968716D-04  0.83526175D-04  0.30079128D-03  0.66305694D-03  0.93337018D-03
 -0.44524799D-04 -0.12214770D-02 -0.72225168D-03 -0.30480666D-06 -0.36919530D-05
 -0.76991787D-05 -0.22079904D-04 -0.11465787D-05  0.95219255D-04  0.24602827D-03
 -0.20045225D-03 -0.29798643D-04  0.97653476D-04  0.61449788D-04 -0.12198759D-08
 -0.16068620D-08 -0.17726203D-08 -0.14723000D-08 -0.78183213D-09 -0.20171678D-09
 -0.46968714D+01 -0.61868783D+01 -0.68250953D+01 -0.56687760D+01 -0.30102774D+01
 -0.77666729D+00 -0.67461151D+01 -0.88862117D+01 -0.98028825D+01 -0.81420615D+01
 -0.43236606D+01 -0.11155270D+01  0.51277745D-13 -0.49572024D-12 -0.69901729D-12
 -0.99977963D-12  0.50627433D-14  0.91689222D-12  0.23791539D-03 -0.23000129D-02
 -0.32432582D-02 -0.46387172D-02  0.23489811D-04  0.42541412D-02  0.33152475D-03
 -0.32049680D-02 -0.45193394D-02 -0.64638509D-02  0.32732031D-04  0.59279609D-02
 -0.80106617D-11 -0.30136528D-01 -0.43508755D-01  0.61784865D-13  0.34062527D-03
  0.55368279D-03  0.23196300D-14  0.11083986D-04  0.17535079D-04  0.14811595D-04
  0.74356727D-03 -0.75837887D-03  0.11268823D-12 -0.75825479D-13  0.67254449D-03
 -0.59557891D-04 -0.42000673D-03  0.47956462D-03 -0.68341022D-13  0.45842612D-13
 -0.33573636D-03 -0.53905534D-05  0.29972579D-05  0.23932955D-05  0.21436772D-14
 -0.35785052D-14 -0.44955204D-05 -0.12235948D-14 -0.15017602D-04  0.13797040D-05
 -0.36550252D-14  0.19064968D-04 -0.36317322D-04  0.73258095D-14  0.25987836D-04
  0.32178210D-04  0.61889963D-14 -0.35231717D-14  0.72698467D-04  0.42665154D-04
  0.12245647D-13  0.12485016D-04 -0.51175613D-04 -0.16761315D-14 -0.23058042D-03
 -0.76819849D-04 -0.22326423D-13
MO    2     MO 0.0        OCC NO =    2.0000377  ORB. ENERGY =    0.000000
  0.55527454D-02  0.10349404D-01  0.17548869D-01  0.26558348D-01  0.33129446D-01
  0.28429993D-01  0.10887177D-01  0.86576076D-06  0.92890448D-05  0.34241168D-04
  0.10011917D-03  0.12064847D-03 -0.14533386D-03  0.54205761D-03  0.22011155D-03
  0.30359268D-03  0.11834481D-12  0.11475465D-12  0.77412811D-13  0.10060739D-11
  0.97555327D-12  0.65810247D-12  0.15575282D-02  0.15102784D-02  0.10188249D-02
  0.30409110D-13  0.13020794D-11  0.57357220D-03 -0.19785079D-13  0.10241631D-11
  0.49138929D-03 -0.26003749D-14  0.22405646D-13  0.10383093D-04  0.13361576D-03
 -0.21089108D-03  0.77275326D-04 -0.29469165D-13 -0.33247115D-13  0.21666179D-12
 -0.77174985D-04  0.24433359D-03 -0.16715860D-03 -0.78262691D-14  0.21415507D-13
  0.14229934D-12  0.57768638D-04  0.19998322D-04 -0.77766961D-04  0.44717894D-13
  0.10860432D-13 -0.13617199D-12 -0.44502130D-14  0.20815737D-12  0.40578319D-04
 -0.41155329D-14 -0.33245109D-12 -0.45997700D-04  0.17466172D-13 -0.29202102D-12
 -0.75737259D-04  0.22228323D-12  0.37500493D-14  0.19392378D-13  0.31243942D-04
  0.28496656D-14  0.29438948D-12  0.35829556D-04 -0.14099814D-13 -0.35256661D-12
 -0.12956138D-03 -0.67953414D-13 -0.37425882D-02 -0.69769384D-02 -0.11791976D-01
 -0.17725540D-01 -0.21772651D-01 -0.18375349D-01 -0.69096112D-02 -0.41401828D-05
 -0.30945302D-04 -0.11564966D-03 -0.32264454D-03 -0.43225473D-03  0.51041223D-03
 -0.95137582D-04 -0.17588396D-04  0.86001980D-04 -0.53707647D-13 -0.50354333D-13
 -0.35855285D-13 -0.12806343D-11 -0.12006761D-11 -0.85495290D-12  0.94735431D-03
  0.88820489D-03  0.63245479D-03  0.14799153D-13 -0.15049249D-12  0.80890715D-03
  0.50799751D-14 -0.51580089D-13 -0.21485880D-03  0.88529125D-15  0.18031975D-13
 -0.21972390D-04 -0.69398124D-04  0.67856279D-03 -0.60916466D-03 -0.33841984D-12
  0.18451921D-13 -0.21310763D-12  0.84732183D-04 -0.15935207D-03  0.74619884D-04
  0.10713261D-13  0.23686303D-13 -0.95644083D-13 -0.10190491D-06  0.11433299D-03
 -0.11423109D-03 -0.20053803D-13  0.40771339D-14 -0.72119510D-13 -0.13551085D-14
 -0.36322533D-12  0.13694296D-03 -0.48492717D-14 -0.68444752D-13 -0.17279801D-03
  0.89145973D-14  0.11581207D-11 -0.23803088D-03  0.97829308D-13 -0.85252929D-15
  0.36328911D-12 -0.70987141D-04 -0.43964459D-15 -0.36660825D-13  0.95071508D-04
  0.29972325D-14 -0.10532065D-11  0.11788992D-03 -0.99754475D-13 -0.16031511D-02
 -0.29993247D-02 -0.51821678D-02 -0.84009030D-02 -0.12757577D-01 -0.17731832D-01
 -0.21081790D-01 -0.18780391D-01 -0.93267392D-02 -0.15015261D-02 -0.15841987D-04
 -0.78232461D-05 -0.26097039D-03 -0.90942958D-03 -0.32750032D-02 -0.72193369D-02
 -0.10162496D-01  0.48478420D-03  0.13299391D-01  0.78638468D-02  0.85595133D-07
  0.10367661D-05  0.21620664D-05  0.62004299D-05  0.32197969D-06 -0.26739261D-04
 -0.69089115D-04  0.56290559D-04  0.36496502D-03 -0.19161597D-03 -0.16887895D-03
 -0.22119995D-08 -0.29137208D-08 -0.32142901D-08 -0.26697196D-08 -0.14176952D-08
 -0.36577277D-09  0.41494719D+01  0.54658251D+01  0.60296607D+01  0.50081053D+01
  0.26594429D+01  0.68615017D+00 -0.70914055D+01 -0.93410400D+01 -0.10304629D+02
 -0.85588015D+01 -0.45449611D+01 -0.11726237D+01  0.97118990D-13 -0.93888390D-12
 -0.13239243D-11 -0.18935620D-11  0.95887314D-14  0.17365749D-11 -0.17771442D-03
  0.17180287D-02  0.24225998D-02  0.34649585D-02 -0.17546062D-04 -0.31776938D-02
  0.33142921D-03 -0.32040443D-02 -0.45180370D-02 -0.64619880D-02  0.32722598D-04
  0.59262525D-02 -0.14440158D-10  0.26699030D-01 -0.45919388D-01  0.11912578D-12
 -0.17426061D-03  0.22033661D-03  0.38961035D-14 -0.11882474D-04  0.70749297D-05
  0.20553356D-04  0.42846297D-03 -0.44901632D-03 -0.24883529D-12 -0.14054192D-12
 -0.38353574D-03  0.60028948D-05 -0.27544095D-03  0.26943805D-03  0.12640969D-12
  0.89098491D-13  0.44075962D-03 -0.21016746D-06  0.37362376D-04 -0.37152208D-04
 -0.44897544D-14 -0.10326866D-13 -0.16448794D-04 -0.63298434D-14 -0.33035849D-04
  0.10427233D-04 -0.14201525D-13  0.52450775D-04  0.40446654D-05  0.33191055D-13
  0.46656773D-04 -0.35326364D-04 -0.45681421D-14 -0.48925440D-14 -0.48093541D-04
 -0.13255162D-04  0.25565024D-13  0.14628836D-04 -0.38552209D-04 -0.10887392D-13
  0.12965179D-03  0.78317694D-04  0.42312464D-13 -0.16031512D-02 -0.29993249D-02
 -0.51821681D-02 -0.84009034D-02 -0.12757578D-01 -0.17731833D-01 -0.21081791D-01
 -0.18780392D-01 -0.93267397D-02 -0.15015262D-02 -0.15841988D-04 -0.78232461D-05
 -0.26097039D-03 -0.90942958D-03 -0.32750032D-02 -0.72193369D-02 -0.10162496D-01
  0.48478420D-03  0.13299391D-01  0.78638468D-02  0.85595134D-07  0.10367661D-05
  0.21620664D-05  0.62004300D-05  0.32197970D-06 -0.26739261D-04 -0.69089116D-04
  0.56290559D-04  0.36496502D-03 -0.19161597D-03 -0.16887895D-03  0.24624713D-08
  0.32436508D-08  0.35782546D-08  0.29720206D-08  0.15782254D-08  0.40719040D-09
 -0.41494718D+01 -0.54658251D+01 -0.60296607D+01 -0.50081053D+01 -0.26594429D+01
 -0.68615017D+00 -0.70914055D+01 -0.93410400D+01 -0.10304629D+02 -0.85588014D+01
 -0.45449611D+01 -0.11726237D+01 -0.10676086D-12  0.10320953D-11  0.14553622D-11
  0.20815529D-11 -0.10540691D-13 -0.19089803D-11  0.17771442D-03 -0.17180287D-02
 -0.24225998D-02 -0.34649585D-02  0.17546062D-04  0.31776938D-02  0.33142921D-03
 -0.32040443D-02 -0.45180369D-02 -0.64619880D-02  0.32722598D-04  0.59262525D-02
  0.16104323D-10 -0.26699030D-01 -0.45919388D-01 -0.12469864D-12  0.17426060D-03
  0.22033661D-03 -0.49064453D-14  0.11882474D-04  0.70749296D-05  0.20553356D-04
  0.42846297D-03 -0.44901632D-03 -0.25856825D-12  0.15075631D-12  0.38353573D-03
  0.60028949D-05 -0.27544095D-03  0.26943805D-03  0.13608329D-12 -0.91515389D-13
 -0.44075962D-03 -0.21016744D-06  0.37362376D-04 -0.37152208D-04 -0.70186115D-14
  0.98361515D-14  0.16448794D-04  0.61397823D-14  0.33035849D-04  0.10427233D-04
  0.95051962D-14 -0.52450775D-04  0.40446655D-05 -0.27924543D-13 -0.46656773D-04
 -0.35326364D-04 -0.51939830D-14  0.51705732D-14  0.48093541D-04 -0.13255162D-04
 -0.24946278D-13 -0.14628836D-04 -0.38552209D-04  0.94345584D-14 -0.12965179D-03
  0.78317694D-04  0.42497736D-13
MO    3     MO 0.0        OCC NO =    2.0000334  ORB. ENERGY =    0.000000
  0.35477929D-10  0.66125025D-10  0.11212427D-09  0.16968816D-09  0.21167261D-09
  0.18164659D-09  0.69560994D-10  0.43481993D-14  0.46653325D-13  0.17197294D-12
  0.50283879D-12  0.60594519D-12 -0.72992519D-12  0.32317953D-11  0.44604530D-13
  0.84831925D-13  0.15158255D-10  0.14698408D-10  0.99154592D-11  0.45866578D-12
  0.44475152D-12  0.30002675D-12 -0.69908068D-12 -0.67787310D-12 -0.45728919D-12
  0.43271757D-11  0.22773196D-12  0.17597750D-12  0.88964372D-12  0.16664071D-12
  0.10971814D-12 -0.45026912D-13  0.97267666D-14  0.25287148D-14 -0.50041264D-13
 -0.95727567D-13  0.14576883D-12  0.12602183D-03  0.11069486D-11  0.76934598D-13
 -0.67931015D-14  0.94632083D-13 -0.87838982D-13  0.28723512D-04 -0.50160158D-12
 -0.12680541D-13  0.15252196D-13  0.68086223D-14 -0.22060819D-13 -0.16041370D-03
 -0.73491089D-13 -0.31048328D-13 -0.19086387D-12  0.28259443D-13  0.13020804D-13
  0.96794200D-12 -0.13668810D-13 -0.32469001D-13 -0.39535038D-12 -0.71109520D-13
 -0.65934112D-14 -0.78316946D-03  0.80369473D-13 -0.15991977D-14  0.16391233D-13
 -0.40405301D-12  0.25525242D-13  0.49803474D-14  0.16294459D-12 -0.20727649D-13
 -0.54154047D-13  0.24512411D-03  0.11475112D-11  0.21391921D-11  0.36155261D-11
  0.54348100D-11  0.66756907D-11  0.56340474D-11  0.21185490D-11 -0.15309314D-14
 -0.11442764D-13 -0.42764221D-13 -0.11930552D-12 -0.15983650D-12  0.18873710D-12
  0.22661371D-12 -0.16780975D-12  0.88823533D-14 -0.10687914D-10 -0.10020599D-10
 -0.71352633D-11 -0.66214593D-12 -0.62080390D-12 -0.44204936D-12  0.17287190D-12
  0.16207839D-12  0.11540947D-12 -0.24483693D-11  0.78914345D-14  0.30931238D-12
 -0.25163742D-12  0.20012132D-13 -0.32669847D-13  0.47529282D-13 -0.17864889D-14
 -0.50155490D-14 -0.54133005D-13  0.17533589D-12 -0.12120289D-12  0.11879678D-02
  0.30172980D-11  0.27877326D-13  0.51046842D-13 -0.80720853D-13  0.29674011D-13
 -0.36401018D-04 -0.25061970D-12 -0.13417521D-12  0.30346677D-14  0.30324819D-13
 -0.33359487D-13  0.71618006D-04  0.12404342D-12 -0.23143214D-13  0.24880084D-12
 -0.31840908D-13  0.31296070D-13 -0.36447063D-12 -0.13467713D-14 -0.51421241D-13
 -0.38193189D-12  0.96869494D-13 -0.42466969D-13 -0.34512239D-03 -0.93003555D-13
  0.39152934D-13 -0.19811886D-13  0.32715807D-12 -0.11467127D-13  0.20591477D-13
 -0.48147400D-13 -0.10599168D-12  0.38844180D-13  0.35427754D-03  0.10621406D-10
  0.19871517D-10  0.34333573D-10  0.55658756D-10  0.84523162D-10  0.11747924D-09
  0.13967382D-09  0.12442629D-09  0.61792727D-10  0.99481062D-11  0.10495840D-12
  0.16934868D-13  0.56491885D-12  0.19686291D-11  0.70893522D-11  0.15627595D-10
  0.21998609D-10 -0.10494054D-11 -0.28789001D-10 -0.17022756D-10  0.34305805D-16
  0.41552707D-15  0.86653791D-15  0.24850799D-14  0.12904674D-15 -0.10716870D-13
 -0.27690333D-13  0.22560780D-13 -0.12916135D-11  0.17156398D-12 -0.37149850D-13
  0.82142051D+01  0.10820030D+02  0.11936187D+02  0.99139375D+01  0.52645759D+01
  0.13582881D+01  0.85226457D-09  0.11226318D-08  0.12384386D-08  0.10286202D-08
  0.54622589D-09  0.14092913D-09 -0.32474771D-08 -0.42776870D-08 -0.47189583D-08
 -0.39194644D-08 -0.20813443D-08 -0.53699772D-09 -0.35837258D-03  0.34645155D-02
  0.48853285D-02  0.69873122D-02 -0.35382765D-04 -0.64080243D-02 -0.45526725D-13
  0.44012308D-12  0.62061949D-12  0.88765004D-12 -0.44949349D-14 -0.81405881D-12
  0.14953617D-12 -0.14456195D-11 -0.20384743D-11 -0.29155575D-11  0.14763973D-13
  0.26738412D-11  0.53681572D-01  0.45844532D-11 -0.21614149D-10 -0.42634354D-03
 -0.42711798D-13  0.15374833D-12 -0.15347644D-04 -0.36098608D-14  0.35274263D-14
  0.67057741D-13  0.14112595D-12 -0.20818369D-12  0.89936703D-03  0.51364209D-03
 -0.32042391D-12 -0.55789306D-13 -0.83774921D-13  0.13956423D-12 -0.46433005D-03
 -0.31820147D-03  0.30676057D-12 -0.37209740D-15  0.10168010D-13 -0.97959125D-14
  0.21089573D-04  0.36184231D-04  0.10439144D-14  0.22134673D-04 -0.82938964D-14
  0.28777461D-14  0.42490131D-04 -0.95591701D-15 -0.13166085D-13 -0.10889415D-03
  0.25837606D-13  0.45328467D-14  0.13872730D-04  0.17484674D-04 -0.22357724D-13
 -0.39030463D-14 -0.88757615D-04 -0.10123586D-13 -0.27736620D-13  0.36303593D-04
  0.77196759D-13  0.39445759D-13 -0.14834959D-03  0.68667269D-11  0.12846913D-10
  0.22196617D-10  0.35983324D-10  0.54644130D-10  0.75950200D-10  0.90298968D-10
  0.80441458D-10  0.39948929D-10  0.64314396D-11  0.67855487D-13 -0.44438940D-13
 -0.14824086D-11 -0.51658973D-11 -0.18603233D-10 -0.41008511D-10 -0.57726748D-10
  0.27537540D-11  0.75545475D-10  0.44669566D-10 -0.65759468D-15 -0.79650775D-14
 -0.16610329D-13 -0.47635533D-13 -0.24736469D-14  0.20542752D-12  0.53078526D-12
 -0.43245884D-12  0.28840521D-11 -0.15310577D-12 -0.28875533D-13 -0.82142051D+01
 -0.10820030D+02 -0.11936186D+02 -0.99139374D+01 -0.52645759D+01 -0.13582881D+01
 -0.10428401D-08 -0.13736643D-08 -0.15153668D-08 -0.12586308D-08 -0.66836787D-09
 -0.17244240D-09 -0.10431817D-08 -0.13741144D-08 -0.15158632D-08 -0.12590431D-08
 -0.66858682D-09 -0.17249889D-09  0.35837258D-03 -0.34645155D-02 -0.48853285D-02
 -0.69873121D-02  0.35382765D-04  0.64080242D-02  0.37990509D-13 -0.36726779D-12
 -0.51788593D-12 -0.74071387D-12  0.37508708D-14  0.67930448D-12  0.49300636D-13
 -0.47660682D-12 -0.67206537D-12 -0.96123127D-12  0.48675398D-14  0.88153973D-12
 -0.53681571D-01 -0.71004113D-11 -0.64717006D-11  0.42634353D-03  0.21140734D-14
  0.73061603D-14  0.15347644D-04  0.22332888D-14  0.55013104D-15 -0.39888767D-13
  0.87615118D-13 -0.47726351D-13  0.89936702D-03 -0.51364209D-03 -0.83924148D-13
  0.27415121D-13 -0.41157754D-13  0.13742633D-13 -0.46433005D-03  0.31820147D-03
 -0.26457268D-13 -0.30759687D-14  0.14294739D-13 -0.11218770D-13  0.21089573D-04
 -0.36184231D-04  0.30874260D-14 -0.22134673D-04  0.88406434D-14  0.35365189D-15
 -0.42490132D-04 -0.17387886D-13  0.90582605D-14  0.10889415D-03 -0.91340445D-14
 -0.10119216D-13  0.13872730D-04 -0.17484674D-04  0.40217830D-14 -0.59434226D-14
  0.88757615D-04 -0.95904451D-14 -0.45239668D-15 -0.36303593D-04 -0.24749038D-14
  0.18282664D-13 -0.14834959D-03
MO    4     MO 0.0        OCC NO =    2.0000300  ORB. ENERGY =    0.000000
  0.41814321D-10  0.77935018D-10  0.13214978D-09  0.19999463D-09  0.24947754D-09
  0.21408885D-09  0.81984655D-10  0.54287128D-14  0.58246526D-13  0.21470766D-12
  0.62779261D-12  0.75652062D-12 -0.91130926D-12  0.37719659D-11 -0.16565958D-12
 -0.28032564D-13 -0.51576114D-02 -0.50011481D-02 -0.33737450D-02  0.82122852D-12
  0.79631542D-12  0.53718968D-12 -0.20549550D-11 -0.19926151D-11 -0.13442064D-11
 -0.14738658D-02  0.30272501D-12 -0.12674943D-12 -0.30699008D-03  0.17914871D-12
 -0.18489407D-13  0.15122647D-04  0.12546966D-13  0.18349762D-15 -0.10606291D-12
 -0.53401722D-13  0.15946463D-12  0.36025384D-12 -0.38240017D-03  0.89556260D-13
  0.24270343D-15  0.24665166D-13 -0.24907869D-13  0.87596353D-13  0.17371811D-03
 -0.18096789D-13 -0.10223894D-14 -0.17660641D-14  0.27884535D-14 -0.47184944D-12
  0.26784810D-04 -0.34566325D-13  0.64370382D-04  0.29688731D-13  0.38719695D-13
 -0.33169824D-03  0.12397321D-13 -0.62981234D-13  0.13858709D-03 -0.10146351D-12
 -0.53177851D-13 -0.22822592D-11 -0.27031352D-04 -0.31786721D-14 -0.25042791D-14
  0.13811977D-03  0.19021675D-13  0.32465135D-14 -0.57025713D-04 -0.94856591D-14
  0.42663236D-14  0.71821078D-12 -0.12746939D-10 -0.23762862D-10 -0.40162474D-10
 -0.60371689D-10 -0.74155807D-10 -0.62584885D-10 -0.23533551D-10 -0.14005525D-14
 -0.10468262D-13 -0.39122285D-13 -0.10914508D-12 -0.14622432D-12  0.17266366D-12
 -0.11081209D-11  0.33505943D-12  0.42738118D-13  0.36371682D-02  0.34100763D-02
  0.24281775D-02 -0.10662237D-11 -0.99965254D-12 -0.71181216D-12  0.27793614D-12
  0.26058280D-12  0.18555048D-12  0.83680625D-03  0.41293215D-13  0.48406303D-13
  0.88795793D-04  0.43246214D-13 -0.49912387D-13 -0.16096984D-04 -0.39367539D-14
 -0.11375423D-14  0.30536997D-13 -0.74589768D-16 -0.30462407D-13  0.34892828D-11
 -0.10266106D-02  0.77830551D-13 -0.67132319D-13  0.30022385D-13  0.37109934D-13
 -0.10364864D-12  0.87777911D-04 -0.21222555D-12 -0.51764863D-14  0.56097554D-14
 -0.43326909D-15  0.21181966D-12 -0.42188449D-04 -0.29690704D-13 -0.84701010D-04
 -0.21158997D-13 -0.60360183D-14  0.12387751D-03  0.19140002D-14  0.18072533D-13