 Entering Gaussian System, Link 0=/home/bruns/programas/chemistry/gaussian/g09/g09
 Input=GAUSSIAN.com
 Output=GAUSSIAN.log
 Initial command:
 /home/bruns/programas/chemistry/gaussian/g09/l1.exe /home/bruns/programas/chemistry/gaussian/work/Gau-43028.inp -scrdir=/home/bruns/programas/chemistry/gaussian/work/
 Entering Link 1 = /home/bruns/programas/chemistry/gaussian/g09/l1.exe PID=     43030.
  
 Copyright (c) 1988,1990,1992,1993,1995,1998,2003,2009,2010,
            Gaussian, Inc.  All Rights Reserved.
  
 This is part of the Gaussian(R) 09 program.  It is based on
 the Gaussian(R) 03 system (copyright 2003, Gaussian, Inc.),
 the Gaussian(R) 98 system (copyright 1998, Gaussian, Inc.),
 the Gaussian(R) 94 system (copyright 1995, Gaussian, Inc.),
 the Gaussian 92(TM) system (copyright 1992, Gaussian, Inc.),
 the Gaussian 90(TM) system (copyright 1990, Gaussian, Inc.),
 the Gaussian 88(TM) system (copyright 1988, Gaussian, Inc.),
 the Gaussian 86(TM) system (copyright 1986, Carnegie Mellon
 University), and the Gaussian 82(TM) system (copyright 1983,
 Carnegie Mellon University). Gaussian is a federally registered
 trademark of Gaussian, Inc.
  
 This software contains proprietary and confidential information,
 including trade secrets, belonging to Gaussian, Inc.
  
 This software is provided under written license and may be
 used, copied, transmitted, or stored only in accord with that
 written license.
  
 The following legend is applicable only to US Government
 contracts under FAR:
  
                    RESTRICTED RIGHTS LEGEND
  
 Use, reproduction and disclosure by the US Government is
 subject to restrictions as set forth in subparagraphs (a)
 and (c) of the Commercial Computer Software - Restricted
 Rights clause in FAR 52.227-19.
  
 Gaussian, Inc.
 340 Quinnipiac St., Bldg. 40, Wallingford CT 06492
  
  
 ---------------------------------------------------------------
 Warning -- This program may not be used in any manner that
 competes with the business of Gaussian, Inc. or will provide
 assistance to any competitor of Gaussian, Inc.  The licensee
 of this program is prohibited from giving any competitor of
 Gaussian, Inc. access to this program.  By using this program,
 the user acknowledges that Gaussian, Inc. is engaged in the
 business of creating and licensing software in the field of
 computational chemistry and represents and warrants to the
 licensee that it is not a competitor of Gaussian, Inc. and that
 it will not use this program in any manner prohibited above.
 ---------------------------------------------------------------
  

 Cite this work as:
 Gaussian 09, Revision B.01,
 M. J. Frisch, G. W. Trucks, H. B. Schlegel, G. E. Scuseria, 
 M. A. Robb, J. R. Cheeseman, G. Scalmani, V. Barone, B. Mennucci, 
 G. A. Petersson, H. Nakatsuji, M. Caricato, X. Li, H. P. Hratchian, 
 A. F. Izmaylov, J. Bloino, G. Zheng, J. L. Sonnenberg, M. Hada, 
 M. Ehara, K. Toyota, R. Fukuda, J. Hasegawa, M. Ishida, T. Nakajima, 
 Y. Honda, O. Kitao, H. Nakai, T. Vreven, J. A. Montgomery, Jr., 
 J. E. Peralta, F. Ogliaro, M. Bearpark, J. J. Heyd, E. Brothers, 
 K. N. Kudin, V. N. Staroverov, T. Keith, R. Kobayashi, J. Normand, 
 K. Raghavachari, A. Rendell, J. C. Burant, S. S. Iyengar, J. Tomasi, 
 M. Cossi, N. Rega, J. M. Millam, M. Klene, J. E. Knox, J. B. Cross, 
 V. Bakken, C. Adamo, J. Jaramillo, R. Gomperts, R. E. Stratmann, 
 O. Yazyev, A. J. Austin, R. Cammi, C. Pomelli, J. W. Ochterski, 
 R. L. Martin, K. Morokuma, V. G. Zakrzewski, G. A. Voth, 
 P. Salvador, J. J. Dannenberg, S. Dapprich, A. D. Daniels, 
 O. Farkas, J. B. Foresman, J. V. Ortiz, J. Cioslowski, 
 and D. J. Fox, Gaussian, Inc., Wallingford CT, 2010.
 
 ******************************************
 Gaussian 09:  EM64L-G09RevB.01 12-Aug-2010
                27-Nov-2021 
 ******************************************
 %nproc=8
 Will use up to    8 processors via shared memory.
 %mem=8GB
 -----------------------------------------------------
 # qcisd/aug-cc-pvtz nosymm density=current output=wfn
 -----------------------------------------------------
 1/30=1,38=1/1;
 2/12=2,15=1,17=6,18=5,40=1/2;
 3/5=16,6=1,7=10,11=9,16=1,25=1,30=1,71=1/1,2,3;
 4//1;
 5/5=2,38=5/2;
 8/6=4,9=120000,10=1/1,4;
 9/5=8,15=1/13;
 11/28=-7,31=1,32=3,42=3/11;
 10/5=6,13=10,31=1/2;
 6/7=2,8=2,9=2,10=2,22=-1,31=1/1;
 99/5=1,6=1100,9=1/99;
 ------------------
 cl2co-wavefunction
 ------------------
 Symbolic Z-matrix:
 Charge =  0 Multiplicity = 1
 O                     0.        0.01      0.6834 
 C                     0.        0.       -0.49469 
 Cl                    0.       -1.44687  -1.46981 
 Cl                    0.        1.44687  -1.46981 
 
                          Input orientation:                          
 ---------------------------------------------------------------------
 Center     Atomic      Atomic             Coordinates (Angstroms)
 Number     Number       Type             X           Y           Z
 ---------------------------------------------------------------------
      1          8           0        0.000000    0.010000    0.683397
      2          6           0        0.000000    0.000000   -0.494687
      3         17           0        0.000000   -1.446870   -1.469805
      4         17           0        0.000000    1.446870   -1.469805
 ---------------------------------------------------------------------
                    Distance matrix (angstroms):
                    1          2          3          4
     1  O    0.000000
     2  C    1.178126   0.000000
     3  Cl   2.599759   1.744789   0.000000
     4  Cl   2.588605   1.744789   2.893740   0.000000
 Symmetry turned off by external request.
 Stoichiometry    CCl2O
 Framework group  CS[SG(CCl2O)]
 Deg. of freedom     5
 Full point group                 CS      NOp   2
 Rotational constants (GHZ):      7.9180423      3.4517571      2.4038382
 Standard basis: Aug-CC-pVTZ (5D, 7F)
 Integral buffers will be    131072 words long.
 Raffenetti 1 integral format.
 Two-electron integral symmetry is turned off.
   192 basis functions,   372 primitive gaussians,   228 cartesian basis functions
    24 alpha electrons       24 beta electrons
       nuclear repulsion energy       191.7650869694 Hartrees.
 NAtoms=    4 NActive=    4 NUniq=    4 SFac= 1.00D+00 NAtFMM=   50 NAOKFM=F Big=F
 One-electron integrals computed using PRISM.
 NBasis=   192 RedAO= T  NBF=   192
 NBsUse=   192 1.00D-06 NBFU=   192
 Harris functional with IExCor=  205 diagonalized for initial guess.
 ExpMin= 3.57D-02 ExpMax= 4.56D+05 ExpMxC= 1.44D+03 IAcc=3 IRadAn=         0 AccDes= 0.00D+00
 HarFok:  IExCor=  205 AccDes= 0.00D+00 IRadAn=         0 IDoV= 1
 ScaDFX=  1.000000  1.000000  1.000000  1.000000
 FoFCou: FMM=F IPFlag=           0 FMFlag=      100000 FMFlg1=           0
         NFxFlg=           0 DoJE=T BraDBF=F KetDBF=T FulRan=T
         Omega=  0.000000  0.000000  1.000000  0.000000  0.000000 ICntrl=     500 IOpCl=  0
         NMat0=    1 NMatS0=    1 NMatT0=    0 NMatD0=    1 NMtDS0=    0 NMtDT0=    0
         I1Cent=           4 NGrid=           0.
 Symmetry not used in FoFCou.
 Requested convergence on RMS density matrix=1.00D-08 within 128 cycles.
 Requested convergence on MAX density matrix=1.00D-06.
 Requested convergence on             energy=1.00D-06.
 No special actions if energy rises.
 Keep R1 ints in memory in canonical form, NReq=346956363.
 SCF Done:  E(RHF) =  -1031.80272093     A.U. after   12 cycles
             Convg  =    0.4842D-08             -V/T =  2.0003
 ExpMin= 3.57D-02 ExpMax= 4.56D+05 ExpMxC= 1.44D+03 IAcc=3 IRadAn=         5 AccDes= 0.00D+00
 HarFok:  IExCor=  205 AccDes= 0.00D+00 IRadAn=         5 IDoV=-2
 ScaDFX=  1.000000  1.000000  1.000000  1.000000
 Range of M.O.s used for correlation:    13   192
 NBasis=   192 NAE=    24 NBE=    24 NFC=    12 NFV=     0
 NROrb=    180 NOA=    12 NOB=    12 NVA=   168 NVB=   168

 **** Warning!!: The largest alpha MO coefficient is  0.28786081D+02

 Semi-Direct transformation.
 ModeAB=           2 MOrb=            12 LenV=    1072714337
 LASXX=     33405819 LTotXX=    33405819 LenRXX=    33405819
 LTotAB=    33954012 MaxLAS=    56388960 LenRXY=    56388960
 NonZer=    66811638 LenScr=   100987392 LnRSAI=           0
 LnScr1=           0 LExtra=           0 Total=    190782171
 MaxDsk=          -1 SrtSym=           F ITran=            4
 JobTyp=0 Pass  1:  I=   1 to  12.
 (rs|ai) integrals will be sorted in core.
 Spin components of T(2) and E(2):
     alpha-alpha T2 =       0.3523687959D-01 E2=     -0.1018056738D+00
     alpha-beta  T2 =       0.1834183303D+00 E2=     -0.5758043314D+00
     beta-beta   T2 =       0.3523687959D-01 E2=     -0.1018056738D+00
 ANorm=    0.1119773231D+01
 E2 =    -0.7794156790D+00 EUMP2 =    -0.10325821366118D+04
 R2 and R3 integrals will be kept in memory, NReq=   687553722.
 Iterations=  50 Convergence= 0.100D-07
 Iteration Nr.   1
 **********************
 DD1Dir will call FoFMem   1 times, MxPair=       156
 NAB=    78 NAA=     0 NBB=     0.
 MP4(R+Q)=  0.22520941D-01
 E3=       -0.19052144D-01        EUMP3=      -0.10326011888D+04
 E4(DQ)=    0.28535508D-02        UMP4(DQ)=   -0.10325983352D+04
 E4(SDQ)=  -0.61293008D-02        UMP4(SDQ)=  -0.10326073181D+04
 DE(Corr)= -0.77594688     E(Corr)=     -1032.5786678    
 NORM(A)=   0.11213553D+01
 Iteration Nr.   2
 **********************
 DD1Dir will call FoFMem   1 times, MxPair=       156
 NAB=    78 NAA=     0 NBB=     0.
 DE(Corr)= -0.80166192     E(CORR)=     -1032.6043829     Delta=-2.57D-02
 NORM(A)=   0.11307166D+01
 Iteration Nr.   3
 **********************
 DD1Dir will call FoFMem   1 times, MxPair=       156
 NAB=    78 NAA=     0 NBB=     0.
 DE(Corr)= -0.80005745     E(CORR)=     -1032.6027784     Delta= 1.60D-03
 NORM(A)=   0.11333209D+01
 Iteration Nr.   4
 **********************
 DD1Dir will call FoFMem   1 times, MxPair=       156
 NAB=    78 NAA=     0 NBB=     0.
 DE(Corr)= -0.80248767     E(CORR)=     -1032.6052086     Delta=-2.43D-03
 NORM(A)=   0.11343326D+01
 Iteration Nr.   5
 **********************
 DD1Dir will call FoFMem   1 times, MxPair=       156
 NAB=    78 NAA=     0 NBB=     0.
 DE(Corr)= -0.80280505     E(CORR)=     -1032.6055260     Delta=-3.17D-04
 NORM(A)=   0.11347232D+01
 Iteration Nr.   6
 **********************
 DD1Dir will call FoFMem   1 times, MxPair=       156
 NAB=    78 NAA=     0 NBB=     0.
 DE(Corr)= -0.80285573     E(CORR)=     -1032.6055767     Delta=-5.07D-05
 NORM(A)=   0.11347944D+01
 Iteration Nr.   7
 **********************
 DD1Dir will call FoFMem   1 times, MxPair=       156
 NAB=    78 NAA=     0 NBB=     0.
 DE(Corr)= -0.80286488     E(CORR)=     -1032.6055858     Delta=-9.15D-06
 NORM(A)=   0.11347956D+01
 Iteration Nr.   8
 **********************
 DD1Dir will call FoFMem   1 times, MxPair=       156
 NAB=    78 NAA=     0 NBB=     0.
 DE(Corr)= -0.80286446     E(CORR)=     -1032.6055854     Delta= 4.13D-07
 NORM(A)=   0.11348037D+01
 Iteration Nr.   9
 **********************
 DD1Dir will call FoFMem   1 times, MxPair=       156
 NAB=    78 NAA=     0 NBB=     0.
 DE(Corr)= -0.80286320     E(CORR)=     -1032.6055841     Delta= 1.27D-06
 NORM(A)=   0.11348032D+01
 Iteration Nr.  10
 **********************
 DD1Dir will call FoFMem   1 times, MxPair=       156
 NAB=    78 NAA=     0 NBB=     0.
 DE(Corr)= -0.80286439     E(CORR)=     -1032.6055853     Delta=-1.19D-06
 NORM(A)=   0.11348049D+01
 Iteration Nr.  11
 **********************
 DD1Dir will call FoFMem   1 times, MxPair=       156
 NAB=    78 NAA=     0 NBB=     0.
 DE(Corr)= -0.80286521     E(CORR)=     -1032.6055861     Delta=-8.17D-07
 NORM(A)=   0.11348060D+01
 Iteration Nr.  12
 **********************
 DD1Dir will call FoFMem   1 times, MxPair=       156
 NAB=    78 NAA=     0 NBB=     0.
 DE(Corr)= -0.80286546     E(CORR)=     -1032.6055864     Delta=-2.49D-07
 NORM(A)=   0.11348067D+01
 Iteration Nr.  13
 **********************
 DD1Dir will call FoFMem   1 times, MxPair=       156
 NAB=    78 NAA=     0 NBB=     0.
 DE(Corr)= -0.80286578     E(CORR)=     -1032.6055867     Delta=-3.25D-07
 NORM(A)=   0.11348071D+01
 Iteration Nr.  14
 **********************
 DD1Dir will call FoFMem   1 times, MxPair=       156
 NAB=    78 NAA=     0 NBB=     0.
 DE(Corr)= -0.80286585     E(CORR)=     -1032.6055868     Delta=-6.52D-08
 NORM(A)=   0.11348073D+01
 Iteration Nr.  15
 **********************
 DD1Dir will call FoFMem   1 times, MxPair=       156
 NAB=    78 NAA=     0 NBB=     0.
 DE(Corr)= -0.80286589     E(CORR)=     -1032.6055868     Delta=-4.77D-08
 NORM(A)=   0.11348074D+01
 Iteration Nr.  16
 **********************
 DD1Dir will call FoFMem   1 times, MxPair=       156
 NAB=    78 NAA=     0 NBB=     0.
 DE(Corr)= -0.80286591     E(CORR)=     -1032.6055868     Delta=-1.62D-08
 NORM(A)=   0.11348074D+01
 Iteration Nr.  17
 **********************
 DD1Dir will call FoFMem   1 times, MxPair=       156
 NAB=    78 NAA=     0 NBB=     0.
 DE(Corr)= -0.80286591     E(CORR)=     -1032.6055868     Delta= 1.37D-09
 NORM(A)=   0.11348074D+01
 Iteration Nr.  18
 **********************
 DD1Dir will call FoFMem   1 times, MxPair=       156
 NAB=    78 NAA=     0 NBB=     0.
 DE(Corr)= -0.80286591     E(CORR)=     -1032.6055868     Delta=-8.27D-10
 NORM(A)=   0.11348074D+01
 Iteration Nr.  19
 **********************
 DD1Dir will call FoFMem   1 times, MxPair=       156
 NAB=    78 NAA=     0 NBB=     0.
 DE(Corr)= -0.80286591     E(CORR)=     -1032.6055868     Delta= 8.05D-10
 NORM(A)=   0.11348074D+01
 Largest amplitude= 3.32D-02

 Z-AMPLITUDE ITERATIONS

 Iteration Nr.   1
 **********************
 DD1Dir will call FoFMem   1 times, MxPair=       156
 NAB=    78 NAA=     0 NBB=     0.
 DE(Z)  -0.77482884D+00          E(Z)=    -0.10325775498D+04
 NORM(A)=   0.11347874D+01
 Iteration Nr.   2
 **********************
 DD1Dir will call FoFMem   1 times, MxPair=       156
 NAB=    78 NAA=     0 NBB=     0.
 DE(Z)  -0.77482818D+00          E(Z)=    -0.10325775491D+04
 NORM(A)=   0.11348027D+01
 Iteration Nr.   3
 **********************
 DD1Dir will call FoFMem   1 times, MxPair=       156
 NAB=    78 NAA=     0 NBB=     0.
 DE(Z)  -0.77482870D+00          E(Z)=    -0.10325775496D+04
 NORM(A)=   0.11348086D+01
 Iteration Nr.   4
 **********************
 DD1Dir will call FoFMem   1 times, MxPair=       156
 NAB=    78 NAA=     0 NBB=     0.
 DE(Z)  -0.77482888D+00          E(Z)=    -0.10325775498D+04
 NORM(A)=   0.11348075D+01
 Iteration Nr.   5
 **********************
 DD1Dir will call FoFMem   1 times, MxPair=       156
 NAB=    78 NAA=     0 NBB=     0.
 DE(Z)  -0.77482884D+00          E(Z)=    -0.10325775498D+04
 NORM(A)=   0.11251869D+01
 Iteration Nr.   6
 **********************
 DD1Dir will call FoFMem   1 times, MxPair=       156
 NAB=    78 NAA=     0 NBB=     0.
 DE(Z)  -0.77452334D+00          E(Z)=    -0.10325772443D+04
 NORM(A)=   0.11251568D+01
 Iteration Nr.   7
 **********************
 DD1Dir will call FoFMem   1 times, MxPair=       156
 NAB=    78 NAA=     0 NBB=     0.
 DE(Z)  -0.77450878D+00          E(Z)=    -0.10325772297D+04
 NORM(A)=   0.11251404D+01
 Iteration Nr.   8
 **********************
 DD1Dir will call FoFMem   1 times, MxPair=       156
 NAB=    78 NAA=     0 NBB=     0.
 DE(Z)  -0.77451109D+00          E(Z)=    -0.10325772320D+04
 NORM(A)=   0.11251389D+01
 Iteration Nr.   9
 **********************
 DD1Dir will call FoFMem   1 times, MxPair=       156
 NAB=    78 NAA=     0 NBB=     0.
 DE(Z)  -0.77451057D+00          E(Z)=    -0.10325772315D+04
 NORM(A)=   0.11251394D+01
 Iteration Nr.  10
 **********************
 DD1Dir will call FoFMem   1 times, MxPair=       156
 NAB=    78 NAA=     0 NBB=     0.
 DE(Z)  -0.77451018D+00          E(Z)=    -0.10325772311D+04
 NORM(A)=   0.11251401D+01
 Iteration Nr.  11
 **********************
 DD1Dir will call FoFMem   1 times, MxPair=       156
 NAB=    78 NAA=     0 NBB=     0.
 DE(Z)  -0.77451103D+00          E(Z)=    -0.10325772320D+04
 NORM(A)=   0.11251405D+01
 Iteration Nr.  12
 **********************
 DD1Dir will call FoFMem   1 times, MxPair=       156
 NAB=    78 NAA=     0 NBB=     0.
 DE(Z)  -0.77451078D+00          E(Z)=    -0.10325772317D+04
 NORM(A)=   0.11251406D+01
 Iteration Nr.  13
 **********************
 DD1Dir will call FoFMem   1 times, MxPair=       156
 NAB=    78 NAA=     0 NBB=     0.
 DE(Z)  -0.77451090D+00          E(Z)=    -0.10325772318D+04
 NORM(A)=   0.11251407D+01
 Iteration Nr.  14
 **********************
 DD1Dir will call FoFMem   1 times, MxPair=       156
 NAB=    78 NAA=     0 NBB=     0.
 DE(Z)  -0.77451086D+00          E(Z)=    -0.10325772318D+04
 NORM(A)=   0.11251407D+01
 Iteration Nr.  15
 **********************
 DD1Dir will call FoFMem   1 times, MxPair=       156
 NAB=    78 NAA=     0 NBB=     0.
 DE(Z)  -0.77451086D+00          E(Z)=    -0.10325772318D+04
 NORM(A)=   0.11251407D+01
 Iteration Nr.  16
 **********************
 DD1Dir will call FoFMem   1 times, MxPair=       156
 NAB=    78 NAA=     0 NBB=     0.
 DE(Z)  -0.77451087D+00          E(Z)=    -0.10325772318D+04
 NORM(A)=   0.11251407D+01
 Discarding MO integrals.
          Differentiating once with respect to electric field.
                with respect to dipole field.
          Electric field/nuclear overlap derivatives assumed to be zero.
          Keep R1 ints in memory in canonical form, NReq=342715808.
          There are     1 degrees of freedom in the 1st order CPHF.  IDoFFX=0.
 LinEq1:  Iter=  0 NonCon=     1 RMS=2.34D-03 Max=5.60D-02
 AX will form     1 AO Fock derivatives at one time.
 LinEq1:  Iter=  1 NonCon=     1 RMS=8.30D-04 Max=1.86D-02
 LinEq1:  Iter=  2 NonCon=     1 RMS=3.10D-04 Max=5.54D-03
 LinEq1:  Iter=  3 NonCon=     1 RMS=1.28D-04 Max=3.24D-03
 LinEq1:  Iter=  4 NonCon=     1 RMS=5.11D-05 Max=1.23D-03
 LinEq1:  Iter=  5 NonCon=     1 RMS=1.65D-05 Max=3.56D-04
 LinEq1:  Iter=  6 NonCon=     1 RMS=4.17D-06 Max=5.73D-05
 LinEq1:  Iter=  7 NonCon=     1 RMS=9.92D-07 Max=1.14D-05
 LinEq1:  Iter=  8 NonCon=     1 RMS=2.10D-07 Max=3.15D-06
 LinEq1:  Iter=  9 NonCon=     1 RMS=4.75D-08 Max=8.05D-07
 LinEq1:  Iter= 10 NonCon=     1 RMS=1.20D-08 Max=2.23D-07
 LinEq1:  Iter= 11 NonCon=     1 RMS=2.52D-09 Max=3.75D-08
 LinEq1:  Iter= 12 NonCon=     1 RMS=4.63D-10 Max=1.16D-08
 LinEq1:  Iter= 13 NonCon=     1 RMS=8.00D-11 Max=1.22D-09
 LinEq1:  Iter= 14 NonCon=     0 RMS=1.51D-11 Max=1.85D-10
 Linear equations converged to 1.000D-10 1.000D-09 after    14 iterations.
 End of Minotr Frequency-dependent properties file   721 does not exist.
 End of Minotr Frequency-dependent properties file   722 does not exist.

 **********************************************************************

            Population analysis using the QCI/CC density.

 **********************************************************************

     Natural Orbital Coefficients:
                           1         2         3         4         5
     Eigenvalues --     2.00004   2.00004   2.00003   2.00003   2.00003
   1 1   O  1S          0.00019   0.01081   0.00000   0.00000   0.00068
   2        2S         -0.00003  -0.00025   0.00000   0.00000  -0.00002
   3        3S          0.00001   0.00050   0.00000   0.00000   0.00003
   4        4S         -0.00004   0.00084   0.00000   0.00000   0.00005
   5        5S          0.00001   0.00297   0.00000   0.00000   0.00003
   6        6PX         0.00000   0.00000   0.00000  -0.00106   0.00000
   7        6PY        -0.00018   0.00000   0.00000   0.00000   0.00026
   8        6PZ         0.00001   0.00032   0.00000   0.00000   0.00000
   9        7PX         0.00000   0.00000   0.00000  -0.00158   0.00000
  10        7PY        -0.00100   0.00002   0.00000   0.00000   0.00049
  11        7PZ         0.00001   0.00062   0.00000   0.00000  -0.00001
  12        8PX         0.00000   0.00000  -0.00002  -0.00150   0.00000
  13        8PY        -0.00366   0.00002   0.00000   0.00000   0.00155
  14        8PZ         0.00004   0.00239   0.00000   0.00000  -0.00005
  15        9PX         0.00000   0.00000  -0.00001   0.00034   0.00000
  16        9PY        -0.00047  -0.00002   0.00000   0.00000   0.00117
  17        9PZ         0.00001   0.00025   0.00000   0.00000   0.00001
  18       10D 0        0.00000   0.00001   0.00000   0.00000   0.00000
  19       10D+1        0.00000   0.00000   0.00000  -0.00003   0.00000
  20       10D-1       -0.00002   0.00000   0.00000   0.00000   0.00003
  21       10D+2        0.00000   0.00003   0.00000   0.00000   0.00000
  22       10D-2        0.00000   0.00000   0.00001   0.00000   0.00000
  23       11D 0        0.00000  -0.00022   0.00000   0.00000   0.00000
  24       11D+1        0.00000   0.00000   0.00000   0.00013   0.00000
  25       11D-1       -0.00005  -0.00001   0.00000   0.00000  -0.00009
  26       11D+2       -0.00002  -0.00024   0.00000   0.00000   0.00000
  27       11D-2        0.00000   0.00000   0.00003   0.00001   0.00000
  28       12D 0       -0.00002  -0.00072   0.00000   0.00000   0.00001
  29       12D+1        0.00000   0.00000   0.00000   0.00014   0.00000
  30       12D-1        0.00058  -0.00001   0.00000   0.00000  -0.00028
  31       12D+2       -0.00003   0.00019   0.00000   0.00000   0.00000
  32       12D-2        0.00000   0.00000  -0.00083   0.00001   0.00000
  33       13F 0        0.00000   0.00001   0.00000   0.00000   0.00000
  34       13F+1        0.00000   0.00000   0.00000   0.00002   0.00000
  35       13F-1        0.00003   0.00000   0.00000   0.00000  -0.00002
  36       13F+2        0.00000   0.00000   0.00000   0.00000   0.00000
  37       13F-2        0.00000   0.00000  -0.00006   0.00000   0.00000
  38       13F+3        0.00000   0.00000   0.00000   0.00004   0.00000
  39       13F-3        0.00004   0.00000   0.00000   0.00000   0.00000
  40       14F 0        0.00001   0.00011   0.00000   0.00000   0.00000
  41       14F+1        0.00000   0.00000   0.00000  -0.00008   0.00000
  42       14F-1        0.00031   0.00000   0.00000   0.00000   0.00003
  43       14F+2        0.00001   0.00014   0.00000   0.00000   0.00000
  44       14F-2        0.00000   0.00000   0.00020  -0.00001   0.00000
  45       14F+3        0.00000   0.00000   0.00000  -0.00017   0.00000
  46       14F-3       -0.00019   0.00000   0.00000   0.00000   0.00004
  47 2   C  1S         -0.00020  -0.01164   0.00000   0.00000  -0.00764
  48        2S          0.00002   0.00143   0.00000   0.00000   0.00016
  49        3S          0.00000  -0.00016   0.00000   0.00000  -0.00028
  50        4S         -0.00002  -0.00008   0.00000   0.00000  -0.00034
  51        5S         -0.00001   0.00125   0.00000   0.00000  -0.00003
  52        6PX         0.00000   0.00000  -0.00001   0.00169   0.00000
  53        6PY         0.00051   0.00000   0.00000   0.00000  -0.00071
  54        6PZ         0.00000   0.00045   0.00000   0.00000  -0.00002
  55        7PX         0.00000   0.00000  -0.00001   0.00197   0.00000
  56        7PY         0.00034   0.00000   0.00000   0.00000   0.00016
  57        7PZ         0.00000   0.00193   0.00000   0.00000  -0.00003
  58        8PX         0.00000   0.00000   0.00001   0.00087   0.00000
  59        8PY         0.00071  -0.00003   0.00000   0.00000   0.00247
  60        8PZ         0.00003  -0.00201   0.00000   0.00000   0.00014
  61        9PX         0.00000   0.00000   0.00000  -0.00072   0.00000
  62        9PY        -0.00040   0.00001   0.00000   0.00000  -0.00112
  63        9PZ        -0.00001  -0.00099   0.00000   0.00000  -0.00001
  64       10D 0        0.00000  -0.00032   0.00000   0.00000   0.00000
  65       10D+1        0.00000   0.00000   0.00000  -0.00031   0.00000
  66       10D-1        0.00005   0.00000   0.00000   0.00000  -0.00002
  67       10D+2        0.00000  -0.00022   0.00000   0.00000   0.00000
  68       10D-2        0.00000   0.00000   0.00036   0.00000   0.00000
  69       11D 0        0.00001   0.00038   0.00000   0.00000  -0.00001
  70       11D+1        0.00000   0.00000   0.00000   0.00024   0.00000
  71       11D-1        0.00019   0.00000   0.00000   0.00000  -0.00153
  72       11D+2        0.00002   0.00065   0.00000   0.00000   0.00005
  73       11D-2        0.00000   0.00000  -0.00012   0.00000   0.00000
  74       12D 0       -0.00003  -0.00394   0.00000   0.00000  -0.00001
  75       12D+1        0.00000   0.00000   0.00001  -0.00082   0.00000
  76       12D-1        0.00108  -0.00001   0.00000   0.00000  -0.00225
  77       12D+2       -0.00001  -0.00228   0.00000   0.00000   0.00005
  78       12D-2        0.00000   0.00000   0.00143  -0.00001   0.00000
  79       13F 0        0.00000   0.00017   0.00000   0.00000  -0.00001
  80       13F+1        0.00000   0.00000   0.00000   0.00006   0.00000
  81       13F-1       -0.00041   0.00000   0.00000   0.00000   0.00002
  82       13F+2        0.00000   0.00002   0.00000   0.00000   0.00000
  83       13F-2        0.00000   0.00000  -0.00011   0.00000   0.00000
  84       13F+3        0.00000   0.00000   0.00000  -0.00009   0.00000
  85       13F-3       -0.00009   0.00000   0.00000   0.00000   0.00000
  86       14F 0       -0.00001  -0.00090   0.00000   0.00000   0.00001
  87       14F+1        0.00000   0.00000   0.00000   0.00011   0.00000
  88       14F-1        0.00402  -0.00004   0.00000   0.00000  -0.00044
  89       14F+2        0.00000  -0.00005   0.00000   0.00000   0.00000
  90       14F-2        0.00000   0.00000   0.00120  -0.00001   0.00000
  91       14F+3        0.00000   0.00000  -0.00001   0.00061   0.00000
  92       14F-3        0.00119  -0.00001   0.00000   0.00000  -0.00042
  93 3   Cl 1S         -0.00033  -0.00248   0.00000   0.00000  -0.18283
  94        2S          0.00148   0.00874   0.00000   0.00000   0.61717
  95        3S          0.00042   0.00013   0.00000   0.00000  -0.01828
  96        4S          0.00009   0.00049   0.00000   0.00000   0.04786
  97        5S         -0.00053  -0.00107   0.00000   0.00000  -0.00107
  98        6S         -0.00067  -0.00195   0.00000   0.00000  -0.00162
  99        7PX         0.00000   0.00000   0.69380  -0.69074   0.00000
 100        7PY        -0.39114   0.35084   0.00000   0.00000  -0.32402
 101        7PZ         0.56492  -0.60399   0.00000   0.00000  -0.22348
 102        8PX         0.00000   0.00000  -0.01498   0.01338   0.00000
 103        8PY         0.00985  -0.00745   0.00000   0.00000   0.00627
 104        8PZ        -0.01379   0.01397   0.00000   0.00000   0.00450
 105        9PX         0.00000   0.00000   0.03672  -0.03705   0.00000
 106        9PY        -0.02033   0.01828   0.00000   0.00000  -0.01842
 107        9PZ         0.02951  -0.03167   0.00000   0.00000  -0.01273
 108       10PX         0.00000   0.00000  -0.00381   0.00330   0.00000
 109       10PY         0.00309  -0.00154   0.00000   0.00000   0.00181
 110       10PZ        -0.00497   0.00200   0.00000   0.00000   0.00138
 111       11PX         0.00000   0.00000  -0.00056   0.00080   0.00000
 112       11PY         0.00040  -0.00044   0.00000   0.00000   0.00016
 113       11PZ        -0.00063   0.00027   0.00000   0.00000  -0.00009
 114       12D 0        0.00043  -0.00026   0.00000   0.00000  -0.00005
 115       12D+1        0.00000   0.00000   0.00017  -0.00015   0.00000
 116       12D-1        0.00022  -0.00013   0.00000   0.00000   0.00014
 117       12D+2        0.00024  -0.00013   0.00000   0.00000  -0.00006
 118       12D-2        0.00000   0.00000   0.00029  -0.00014   0.00000
 119       13D 0       -0.00192   0.00108   0.00000   0.00000   0.00022
 120       13D+1        0.00000   0.00000  -0.00073   0.00060   0.00000
 121       13D-1       -0.00079   0.00102   0.00000   0.00000   0.00066
 122       13D+2       -0.00084   0.00064   0.00000   0.00000  -0.00041
 123       13D-2        0.00000   0.00000  -0.00108   0.00097   0.00000
 124       14D 0       -0.00007  -0.00076   0.00000   0.00000  -0.00006
 125       14D+1        0.00000   0.00000   0.00043   0.00005   0.00000
 126       14D-1       -0.00006  -0.00020   0.00000   0.00000   0.00029
 127       14D+2        0.00007  -0.00045   0.00000   0.00000   0.00013
 128       14D-2        0.00000   0.00000   0.00025  -0.00010   0.00000
 129       15F 0        0.00000   0.00002   0.00000   0.00000   0.00002
 130       15F+1        0.00000   0.00000  -0.00007  -0.00004   0.00000
 131       15F-1        0.00001   0.00003   0.00000   0.00000   0.00002
 132       15F+2        0.00003   0.00002   0.00000   0.00000  -0.00001
 133       15F-2        0.00000   0.00000   0.00000  -0.00001   0.00000
 134       15F+3        0.00000   0.00000  -0.00001  -0.00001   0.00000
 135       15F-3        0.00002   0.00004   0.00000   0.00000  -0.00002
 136       16F 0       -0.00040  -0.00012   0.00000   0.00000  -0.00014
 137       16F+1        0.00000   0.00000   0.00014   0.00015   0.00000
 138       16F-1       -0.00090   0.00050   0.00000   0.00000   0.00016
 139       16F+2       -0.00006  -0.00029   0.00000   0.00000  -0.00023
 140       16F-2        0.00000   0.00000  -0.00036   0.00032   0.00000
 141       16F+3        0.00000   0.00000   0.00032  -0.00028   0.00000
 142       16F-3       -0.00019   0.00019   0.00000   0.00000  -0.00006
 143 4   Cl 1S          0.00055  -0.00231   0.00000   0.00000   0.16389
 144        2S         -0.00223   0.00818   0.00000   0.00000  -0.55326
 145        3S         -0.00040   0.00015   0.00000   0.00000   0.01637
 146        4S         -0.00015   0.00045   0.00000   0.00000  -0.04289
 147        5S          0.00058  -0.00102   0.00000   0.00000   0.00088
 148        6S          0.00067  -0.00197   0.00000   0.00000   0.00159
 149        7PX         0.00000   0.00000  -0.69122  -0.69331   0.00000
 150        7PY        -0.39521  -0.34113   0.00000   0.00000  -0.29306
 151        7PZ        -0.57639  -0.59614   0.00000   0.00000   0.20499
 152        8PX         0.00000   0.00000   0.01492   0.01342   0.00000
 153        8PY         0.00994   0.00721   0.00000   0.00000   0.00572
 154        8PZ         0.01406   0.01378   0.00000   0.00000  -0.00417
 155        9PX         0.00000   0.00000  -0.03659  -0.03719   0.00000
 156        9PY        -0.02054  -0.01777   0.00000   0.00000  -0.01666
 157        9PZ        -0.03011  -0.03126   0.00000   0.00000   0.01167
 158       10PX         0.00000   0.00000   0.00381   0.00334   0.00000
 159       10PY         0.00309   0.00146   0.00000   0.00000   0.00158
 160       10PZ         0.00504   0.00196   0.00000   0.00000  -0.00126
 161       11PX         0.00000   0.00000   0.00056   0.00081   0.00000
 162       11PY         0.00041   0.00043   0.00000   0.00000   0.00015
 163       11PZ         0.00064   0.00026   0.00000   0.00000   0.00010
 164       12D 0       -0.00043  -0.00025   0.00000   0.00000   0.00004
 165       12D+1        0.00000   0.00000  -0.00016  -0.00015   0.00000
 166       12D-1        0.00022   0.00013   0.00000   0.00000   0.00012
 167       12D+2       -0.00024  -0.00013   0.00000   0.00000   0.00005
 168       12D-2        0.00000   0.00000   0.00029   0.00015   0.00000
 169       13D 0        0.00194   0.00104   0.00000   0.00000  -0.00023
 170       13D+1        0.00000   0.00000   0.00072   0.00060   0.00000
 171       13D-1       -0.00081  -0.00102   0.00000   0.00000   0.00062
 172       13D+2        0.00085   0.00062   0.00000   0.00000   0.00036
 173       13D-2        0.00000   0.00000  -0.00107  -0.00097   0.00000
 174       14D 0        0.00005  -0.00075   0.00000   0.00000   0.00004
 175       14D+1        0.00000   0.00000  -0.00043   0.00005   0.00000
 176       14D-1       -0.00006   0.00019   0.00000   0.00000   0.00026
 177       14D+2       -0.00008  -0.00045   0.00000   0.00000  -0.00016
 178       14D-2        0.00000   0.00000   0.00025   0.00010   0.00000
 179       15F 0        0.00000   0.00001   0.00000   0.00000  -0.00002
 180       15F+1        0.00000   0.00000   0.00007  -0.00004   0.00000
 181       15F-1        0.00001  -0.00003   0.00000   0.00000   0.00002
 182       15F+2       -0.00003   0.00002   0.00000   0.00000   0.00001
 183       15F-2        0.00000   0.00000   0.00000   0.00001   0.00000
 184       15F+3        0.00000   0.00000   0.00001  -0.00001   0.00000
 185       15F-3        0.00001  -0.00004   0.00000   0.00000  -0.00001
 186       16F 0        0.00039  -0.00013   0.00000   0.00000   0.00014
 187       16F+1        0.00000   0.00000  -0.00015   0.00016   0.00000
 188       16F-1       -0.00091  -0.00049   0.00000   0.00000   0.00016
 189       16F+2        0.00005  -0.00029   0.00000   0.00000   0.00021
 190       16F-2        0.00000   0.00000  -0.00035  -0.00033   0.00000
 191       16F+3        0.00000   0.00000  -0.00032  -0.00028   0.00000
 192       16F-3       -0.00019  -0.00018   0.00000   0.00000  -0.00005
                           6         7         8         9        10
     Eigenvalues --     2.00003   2.00001   2.00001   2.00001   2.00000
   1 1   O  1S          0.01414   0.04346  -0.25522   0.88078   0.34098
   2        2S         -0.00043  -0.00096   0.00558  -0.01618  -0.00557
   3        3S          0.00056   0.00181  -0.01066   0.03746   0.01491
   4        4S          0.00066  -0.00012   0.00046  -0.00328  -0.00109
   5        5S          0.00031   0.00027  -0.00179  -0.00099  -0.00167
   6        6PX         0.00000   0.00000   0.00000   0.00000   0.00000
   7        6PY        -0.00001  -0.00079  -0.00011  -0.00004   0.00001
   8        6PZ        -0.00009  -0.00029   0.00175  -0.00373   0.00045
   9        7PX         0.00000   0.00000   0.00000   0.00000   0.00000
  10        7PY        -0.00002  -0.00133  -0.00023  -0.00002   0.00004
  11        7PZ        -0.00021  -0.00020   0.00127  -0.00077   0.00313
  12        8PX         0.00000   0.00000   0.00000   0.00000   0.00000
  13        8PY        -0.00008  -0.00409  -0.00074  -0.00005   0.00004
  14        8PZ        -0.00077  -0.00031   0.00204  -0.00260   0.00278
  15        9PX         0.00000   0.00000   0.00000   0.00000   0.00000
  16        9PY        -0.00005  -0.00151  -0.00027  -0.00001   0.00001
  17        9PZ         0.00017  -0.00004   0.00028  -0.00032   0.00086
  18       10D 0        0.00002   0.00002  -0.00010   0.00021   0.00002
  19       10D+1        0.00000   0.00000   0.00000   0.00000   0.00000
  20       10D-1        0.00000  -0.00004  -0.00001   0.00000   0.00000
  21       10D+2        0.00000   0.00000   0.00000  -0.00007   0.00000
  22       10D-2        0.00000   0.00000   0.00000   0.00000   0.00000
  23       11D 0        0.00008   0.00002  -0.00009  -0.00036  -0.00104
  24       11D+1        0.00000   0.00000   0.00000   0.00000   0.00000
  25       11D-1        0.00000   0.00010   0.00003   0.00000  -0.00003
  26       11D+2       -0.00002  -0.00003   0.00017  -0.00004  -0.00012
  27       11D-2        0.00000   0.00000   0.00000   0.00000   0.00000
  28       12D 0        0.00007  -0.00002  -0.00003   0.00074  -0.00096
  29       12D+1        0.00000   0.00000   0.00000   0.00000   0.00000
  30       12D-1        0.00002   0.00103   0.00019   0.00001  -0.00002
  31       12D+2       -0.00022  -0.00012   0.00061   0.00016  -0.00003
  32       12D-2        0.00000   0.00000   0.00000   0.00000   0.00000
  33       13F 0        0.00001   0.00001  -0.00009   0.00006  -0.00013
  34       13F+1        0.00000   0.00000   0.00000   0.00000   0.00000
  35       13F-1        0.00000   0.00006   0.00000   0.00000   0.00000
  36       13F+2       -0.00001   0.00000   0.00002  -0.00002  -0.00002
  37       13F-2        0.00000   0.00000   0.00000   0.00000   0.00000
  38       13F+3        0.00000   0.00000   0.00000   0.00000   0.00000
  39       13F-3        0.00000   0.00000   0.00000   0.00000   0.00000
  40       14F 0        0.00006   0.00003  -0.00014  -0.00007   0.00053
  41       14F+1        0.00000   0.00000   0.00000   0.00000   0.00000
  42       14F-1        0.00000  -0.00004  -0.00001   0.00000   0.00002
  43       14F+2        0.00009   0.00005  -0.00029  -0.00010   0.00018
  44       14F-2        0.00000   0.00000   0.00000   0.00000   0.00000
  45       14F+3        0.00000   0.00000   0.00000   0.00000   0.00000
  46       14F-3        0.00000  -0.00007  -0.00002   0.00000   0.00000
  47 2   C  1S         -0.14538  -0.10158   0.60694  -0.10433   0.74242
  48        2S          0.00292   0.00177  -0.01056   0.00089  -0.00666
  49        3S         -0.00532  -0.00395   0.02365  -0.00506   0.03219
  50        4S         -0.00631  -0.00097   0.00572   0.00573  -0.01223
  51        5S         -0.00041  -0.00042   0.00247   0.00149  -0.00228
  52        6PX         0.00000   0.00000   0.00000   0.00000   0.00000
  53        6PY         0.00004   0.00242   0.00040   0.00000  -0.00001
  54        6PZ        -0.00038  -0.00012   0.00060   0.00096  -0.00197
  55        7PX         0.00000   0.00000   0.00000   0.00000   0.00000
  56        7PY        -0.00002  -0.00035  -0.00004   0.00001   0.00004
  57        7PZ        -0.00071  -0.00024   0.00132   0.00086   0.00501
  58        8PX         0.00000   0.00000   0.00000   0.00000   0.00000
  59        8PY        -0.00014  -0.00010   0.00006   0.00002   0.00001
  60        8PZ         0.00243   0.00029  -0.00170  -0.00103   0.00412
  61        9PX         0.00000   0.00000   0.00000   0.00000   0.00000
  62        9PY         0.00005   0.00139   0.00024   0.00001  -0.00001
  63        9PZ        -0.00028   0.00002  -0.00012   0.00017   0.00017
  64       10D 0       -0.00007  -0.00004   0.00025   0.00008   0.00070
  65       10D+1        0.00000   0.00000   0.00000   0.00000   0.00000
  66       10D-1        0.00000  -0.00012  -0.00002   0.00000   0.00001
  67       10D+2        0.00007   0.00002  -0.00012   0.00003  -0.00016
  68       10D-2        0.00000   0.00000   0.00000   0.00000   0.00000
  69       11D 0       -0.00023  -0.00001   0.00000   0.00093   0.00102
  70       11D+1        0.00000   0.00000   0.00000   0.00000   0.00000
  71       11D-1        0.00007   0.00271   0.00048   0.00003  -0.00002
  72       11D+2        0.00090   0.00009  -0.00055  -0.00112   0.00329
  73       11D-2        0.00000   0.00000   0.00000   0.00000   0.00000
  74       12D 0       -0.00013  -0.00007   0.00043  -0.00006  -0.00066
  75       12D+1        0.00000   0.00000   0.00000   0.00000   0.00000
  76       12D-1        0.00011   0.00254   0.00045   0.00002  -0.00002
  77       12D+2        0.00078   0.00018  -0.00105  -0.00085   0.00113
  78       12D-2        0.00000   0.00000   0.00000   0.00000   0.00000
  79       13F 0       -0.00015  -0.00005   0.00029  -0.00014   0.00038
  80       13F+1        0.00000   0.00000   0.00000   0.00000   0.00000
  81       13F-1        0.00000  -0.00007   0.00000   0.00000   0.00001
  82       13F+2       -0.00002   0.00002  -0.00010  -0.00007  -0.00008
  83       13F-2        0.00000   0.00000   0.00000   0.00000   0.00000
  84       13F+3        0.00000   0.00000   0.00000   0.00000   0.00000
  85       13F-3        0.00000  -0.00003   0.00000   0.00000   0.00000
  86       14F 0        0.00022   0.00017  -0.00107   0.00088  -0.00090
  87       14F+1        0.00000   0.00000   0.00000   0.00000   0.00000
  88       14F-1        0.00002   0.00152   0.00028   0.00002   0.00000
  89       14F+2       -0.00006   0.00009  -0.00059   0.00035  -0.00098
  90       14F-2        0.00000   0.00000   0.00000   0.00000   0.00000
  91       14F+3        0.00000   0.00000   0.00000   0.00000   0.00000
  92       14F-3        0.00002   0.00078   0.00013   0.00000   0.00000
  93 3   Cl 1S         -0.16780  -0.09453  -0.10866  -0.03790   0.03595
  94        2S          0.56604   0.32035   0.37046   0.12930  -0.12269
  95        3S         -0.01690  -0.00575  -0.00573  -0.00158   0.00080
  96        4S          0.04405   0.02674   0.03031   0.01089  -0.01100
  97        5S         -0.00182  -0.00557  -0.00531  -0.00354   0.00815
  98        6S         -0.00013   0.00292  -0.00040  -0.00076   0.00225
  99        7PX         0.00000   0.00000   0.00000   0.00000   0.00000
 100        7PY        -0.28305   0.41014   0.42239   0.22253  -0.30928
 101        7PZ        -0.15186   0.29051   0.24961   0.13951  -0.18478
 102        8PX         0.00000   0.00000   0.00000   0.00000   0.00000
 103        8PY         0.00495  -0.00742  -0.00648  -0.00336   0.00518
 104        8PZ         0.00262  -0.00566  -0.00397  -0.00218   0.00364
 105        9PX         0.00000   0.00000   0.00000   0.00000   0.00000
 106        9PY        -0.01610   0.02503   0.02574   0.01385  -0.01983
 107        9PZ        -0.00869   0.01789   0.01527   0.00869  -0.01201
 108       10PX         0.00000   0.00000   0.00000   0.00000   0.00000
 109       10PY         0.00215   0.00012  -0.00106  -0.00093   0.00310
 110       10PZ         0.00112  -0.00044  -0.00048  -0.00097   0.00219
 111       11PX         0.00000   0.00000   0.00000   0.00000   0.00000
 112       11PY         0.00002   0.00010  -0.00004  -0.00005   0.00020
 113       11PZ         0.00012   0.00026   0.00001  -0.00016   0.00019
 114       12D 0       -0.00005   0.00001   0.00001   0.00002   0.00000
 115       12D+1        0.00000   0.00000   0.00000   0.00000   0.00000
 116       12D-1        0.00017   0.00037   0.00032   0.00024  -0.00035
 117       12D+2       -0.00009  -0.00028  -0.00028  -0.00014   0.00022
 118       12D-2        0.00000   0.00000   0.00000   0.00000   0.00000
 119       13D 0       -0.00008  -0.00048   0.00002   0.00008   0.00006
 120       13D+1        0.00000   0.00000   0.00000   0.00000   0.00000
 121       13D-1        0.00035  -0.00206  -0.00125  -0.00091   0.00212
 122       13D+2       -0.00045   0.00102   0.00124   0.00065  -0.00133
 123       13D-2        0.00000   0.00000   0.00000   0.00000   0.00000
 124       14D 0       -0.00008  -0.00010   0.00003  -0.00008   0.00008
 125       14D+1        0.00000   0.00000   0.00000   0.00000   0.00000
 126       14D-1        0.00029   0.00009   0.00028  -0.00015   0.00066
 127       14D+2       -0.00035  -0.00068  -0.00009   0.00006  -0.00053
 128       14D-2        0.00000   0.00000   0.00000   0.00000   0.00000
 129       15F 0        0.00000  -0.00002   0.00003  -0.00002   0.00002
 130       15F+1        0.00000   0.00000   0.00000   0.00000   0.00000
 131       15F-1        0.00000  -0.00007  -0.00002   0.00004  -0.00002
 132       15F+2        0.00000   0.00003   0.00003  -0.00004  -0.00001
 133       15F-2        0.00000   0.00000   0.00000   0.00000   0.00000
 134       15F+3        0.00000   0.00000   0.00000   0.00000   0.00000
 135       15F-3       -0.00003   0.00001   0.00007   0.00003  -0.00006
 136       16F 0       -0.00004   0.00030  -0.00002   0.00014  -0.00034
 137       16F+1        0.00000   0.00000   0.00000   0.00000   0.00000
 138       16F-1        0.00001  -0.00046  -0.00008  -0.00013   0.00039
 139       16F+2       -0.00015   0.00055   0.00028   0.00029  -0.00060
 140       16F-2        0.00000   0.00000   0.00000   0.00000   0.00000
 141       16F+3        0.00000   0.00000   0.00000   0.00000   0.00000
 142       16F-3       -0.00011   0.00013   0.00023   0.00007  -0.00024
 143 4   Cl 1S         -0.18624   0.12530  -0.07148  -0.03781   0.03560
 144        2S          0.62833  -0.42537   0.24432   0.12900  -0.12150
 145        3S         -0.01873   0.00734  -0.00353  -0.00157   0.00080
 146        4S          0.04889  -0.03531   0.01981   0.01087  -0.01089
 147        5S         -0.00194   0.00704  -0.00319  -0.00353   0.00806
 148        6S         -0.00029  -0.00259  -0.00135  -0.00078   0.00224
 149        7PX         0.00000   0.00000   0.00000   0.00000   0.00000
 150        7PY         0.31628   0.52938  -0.26387  -0.22259   0.30833
 151        7PZ        -0.17450  -0.35420   0.13863   0.13851  -0.18262
 152        8PX         0.00000   0.00000   0.00000   0.00000   0.00000
 153        8PY        -0.00559  -0.00919   0.00369   0.00337  -0.00515
 154        8PZ         0.00308   0.00662  -0.00185  -0.00215   0.00361
 155        9PX         0.00000   0.00000   0.00000   0.00000   0.00000
 156        9PY         0.01799   0.03229  -0.01607  -0.01385   0.01976
 157        9PZ        -0.00998  -0.02178   0.00844   0.00863  -0.01187
 158       10PX         0.00000   0.00000   0.00000   0.00000   0.00000
 159       10PY        -0.00233  -0.00025   0.00105   0.00094  -0.00306
 160       10PZ         0.00127   0.00060  -0.00032  -0.00098   0.00219
 161       11PX         0.00000   0.00000   0.00000   0.00000   0.00000
 162       11PY        -0.00004   0.00008   0.00007   0.00005  -0.00019
 163       11PZ         0.00011  -0.00024  -0.00008  -0.00016   0.00019
 164       12D 0       -0.00006  -0.00001   0.00000   0.00002   0.00000
 165       12D+1        0.00000   0.00000   0.00000   0.00000   0.00000
 166       12D-1       -0.00018   0.00045  -0.00018  -0.00024   0.00034
 167       12D+2       -0.00009   0.00035  -0.00017  -0.00014   0.00021
 168       12D-2        0.00000   0.00000   0.00000   0.00000   0.00000
 169       13D 0       -0.00005   0.00044   0.00019   0.00009   0.00006
 170       13D+1        0.00000   0.00000   0.00000   0.00000   0.00000
 171       13D-1       -0.00042  -0.00236   0.00049   0.00090  -0.00210
 172       13D+2       -0.00049  -0.00138   0.00084   0.00065  -0.00131
 173       13D-2        0.00000   0.00000   0.00000   0.00000   0.00000
 174       14D 0       -0.00008   0.00010   0.00007  -0.00009   0.00008
 175       14D+1        0.00000   0.00000   0.00000   0.00000   0.00000
 176       14D-1       -0.00032   0.00017  -0.00023   0.00015  -0.00065
 177       14D+2       -0.00033   0.00067   0.00014   0.00007  -0.00052
 178       14D-2        0.00000   0.00000   0.00000   0.00000   0.00000
 179       15F 0        0.00000   0.00000   0.00003  -0.00002   0.00002
 180       15F+1        0.00000   0.00000   0.00000   0.00000   0.00000
 181       15F-1       -0.00001  -0.00007   0.00000  -0.00004   0.00002
 182       15F+2        0.00000  -0.00004   0.00002  -0.00004  -0.00001
 183       15F-2        0.00000   0.00000   0.00000   0.00000   0.00000
 184       15F+3        0.00000   0.00000   0.00000   0.00000   0.00000
 185       15F-3        0.00003   0.00003  -0.00006  -0.00003   0.00005
 186       16F 0       -0.00005  -0.00028  -0.00011   0.00014  -0.00034
 187       16F+1        0.00000   0.00000   0.00000   0.00000   0.00000
 188       16F-1       -0.00002  -0.00046  -0.00008   0.00013  -0.00038
 189       16F+2       -0.00018  -0.00061   0.00008   0.00029  -0.00060
 190       16F-2        0.00000   0.00000   0.00000   0.00000   0.00000
 191       16F+3        0.00000   0.00000   0.00000   0.00000   0.00000
 192       16F-3        0.00012   0.00020  -0.00018  -0.00008   0.00023
                          11        12        13        14        15
     Eigenvalues --     2.00000   2.00000   1.98120   1.97616   1.97460
   1 1   O  1S          0.00003   0.00000  -0.18605  -0.06286   0.00041
   2        2S          0.00001   0.00000   0.48174   0.17008  -0.00108
   3        3S          0.00000   0.00000   0.13549   0.04887  -0.00032
   4        4S          0.00003   0.00000   0.29382   0.13440  -0.00063
   5        5S          0.00004   0.00000   0.01960   0.02324   0.00002
   6        6PX         0.00000   0.00000   0.00000   0.00000   0.00000
   7        6PY         0.00000   0.00000   0.00024   0.00015   0.04395
   8        6PZ         0.00000   0.00000  -0.00872   0.02885  -0.00065
   9        7PX         0.00000   0.00000   0.00000   0.00000   0.00000
  10        7PY         0.00000   0.00001   0.00029   0.00007   0.05470
  11        7PZ         0.00000   0.00000  -0.01518   0.03064  -0.00080
  12        8PX         0.00000   0.00000   0.00000   0.00000   0.00000
  13        8PY         0.00000   0.00006   0.00082   0.00008   0.04003
  14        8PZ         0.00003   0.00000   0.04928   0.02589  -0.00058
  15        9PX         0.00000   0.00000   0.00000   0.00000   0.00000
  16        9PY         0.00000   0.00001   0.00018  -0.00005   0.00091
  17        9PZ         0.00000   0.00000   0.01375  -0.00042  -0.00008
  18       10D 0        0.00000   0.00000   0.00496   0.00003   0.00004
  19       10D+1        0.00000   0.00000   0.00000   0.00000   0.00000
  20       10D-1        0.00000   0.00000   0.00006   0.00001  -0.00210
  21       10D+2        0.00000   0.00000  -0.00001  -0.00002   0.00001
  22       10D-2        0.00000   0.00000   0.00000   0.00000   0.00000
  23       11D 0       -0.00001   0.00000   0.01088   0.00141   0.00009
  24       11D+1        0.00000   0.00000   0.00000   0.00000   0.00000
  25       11D-1        0.00000   0.00000   0.00010   0.00012  -0.00534
  26       11D+2        0.00000   0.00000   0.00026   0.00100   0.00005
  27       11D-2        0.00000   0.00000   0.00000   0.00000   0.00000
  28       12D 0       -0.00002   0.00000  -0.01505  -0.00336   0.00004
  29       12D+1        0.00000   0.00000   0.00000   0.00000   0.00000
  30       12D-1        0.00000  -0.00002  -0.00028  -0.00004  -0.00400
  31       12D+2        0.00000   0.00000   0.00142   0.00136   0.00007
  32       12D-2        0.00000   0.00000   0.00000   0.00000   0.00000
  33       13F 0        0.00000   0.00000  -0.00275  -0.00032  -0.00004
  34       13F+1        0.00000   0.00000   0.00000   0.00000   0.00000
  35       13F-1        0.00000   0.00000  -0.00004  -0.00003   0.00147
  36       13F+2        0.00000   0.00000   0.00021  -0.00005  -0.00002
  37       13F-2        0.00000   0.00000   0.00000   0.00000   0.00000
  38       13F+3        0.00000   0.00000   0.00000   0.00000   0.00000
  39       13F-3        0.00000   0.00000   0.00000   0.00000   0.00008
  40       14F 0        0.00000   0.00000  -0.00009  -0.00057   0.00000
  41       14F+1        0.00000   0.00000   0.00000   0.00000   0.00000
  42       14F-1        0.00000   0.00000   0.00000  -0.00005   0.00015
  43       14F+2        0.00000   0.00000  -0.00069  -0.00104  -0.00003
  44       14F-2        0.00000   0.00000   0.00000   0.00000   0.00000
  45       14F+3        0.00000   0.00000   0.00000   0.00000   0.00000
  46       14F-3        0.00000   0.00000   0.00000  -0.00002   0.00044
  47 2   C  1S         -0.00030   0.00001  -0.08434   0.04576   0.00020
  48        2S          0.00003   0.00000   0.19422  -0.12665  -0.00049
  49        3S          0.00002   0.00000   0.04627  -0.02637  -0.00010
  50        4S         -0.00013   0.00000   0.00263  -0.05552  -0.00024
  51        5S         -0.00005   0.00000  -0.00447  -0.02446   0.00001
  52        6PX         0.00000   0.00000   0.00000   0.00000   0.00000
  53        6PY         0.00000  -0.00001   0.00080   0.00015   0.07153
  54        6PZ        -0.00001   0.00000   0.06359   0.05729  -0.00020
  55        7PX         0.00000   0.00000   0.00000   0.00000   0.00000
  56        7PY         0.00000   0.00004   0.00078   0.00020   0.09693
  57        7PZ         0.00005   0.00000   0.04904   0.06670  -0.00021
  58        8PX         0.00000   0.00000   0.00000   0.00000   0.00000
  59        8PY         0.00000  -0.00009  -0.00038  -0.00018  -0.00734
  60        8PZ        -0.00001   0.00000  -0.01845  -0.00344  -0.00021
  61        9PX         0.00000   0.00000   0.00000   0.00000   0.00000
  62        9PY         0.00000  -0.00001  -0.00018   0.00003   0.00604
  63        9PZ         0.00000   0.00000  -0.00732   0.00329   0.00001
  64       10D 0        0.00000   0.00000   0.01556   0.00259  -0.00005
  65       10D+1        0.00000   0.00000   0.00000   0.00000   0.00000
  66       10D-1        0.00000   0.00000   0.00023   0.00004  -0.00592
  67       10D+2        0.00000   0.00000  -0.00266   0.00660  -0.00001
  68       10D-2        0.00000   0.00000   0.00000   0.00000   0.00000
  69       11D 0       -0.00001   0.00000   0.00615  -0.00225  -0.00008
  70       11D+1        0.00000   0.00000   0.00000   0.00000   0.00000
  71       11D-1        0.00000  -0.00007   0.00005   0.00012  -0.01928
  72       11D+2        0.00005   0.00000  -0.00326   0.01161   0.00000
  73       11D-2        0.00000   0.00000   0.00000   0.00000   0.00000
  74       12D 0       -0.00003   0.00000  -0.02000  -0.00788   0.00002
  75       12D+1        0.00000   0.00000   0.00000   0.00000   0.00000
  76       12D-1        0.00000  -0.00001  -0.00036   0.00000   0.00452
  77       12D+2        0.00001   0.00000  -0.00112  -0.00272   0.00000
  78       12D-2        0.00000   0.00000   0.00000   0.00000   0.00000
  79       13F 0        0.00000   0.00000   0.00592  -0.00204  -0.00004
  80       13F+1        0.00000   0.00000   0.00000   0.00000   0.00000
  81       13F-1        0.00000   0.00000   0.00010   0.00002   0.00231
  82       13F+2       -0.00001   0.00000   0.00257  -0.00425  -0.00003
  83       13F-2        0.00000   0.00000   0.00000   0.00000   0.00000
  84       13F+3        0.00000   0.00000   0.00000   0.00000   0.00000
  85       13F-3        0.00000  -0.00001  -0.00001  -0.00001  -0.00265
  86       14F 0       -0.00003   0.00000  -0.00661  -0.00482   0.00000
  87       14F+1        0.00000   0.00000   0.00000   0.00000   0.00000
  88       14F-1        0.00000  -0.00001  -0.00025  -0.00008   0.00139
  89       14F+2       -0.00003   0.00000  -0.00283  -0.00584  -0.00001
  90       14F-2        0.00000   0.00000   0.00000   0.00000   0.00000
  91       14F+3        0.00000   0.00000   0.00000   0.00000   0.00000
  92       14F-3        0.00000  -0.00001  -0.00006  -0.00004   0.00003
  93 3   Cl 1S          0.73508   0.67383   0.01111  -0.04762  -0.05220
  94        2S          0.00731   0.00685  -0.04031   0.17861   0.19525
  95        3S          0.00012   0.00011   0.09113  -0.38013  -0.41835
  96        4S          0.00016   0.00015   0.01029  -0.04676  -0.05255
  97        5S          0.00000  -0.00006   0.04960  -0.22571  -0.25719
  98        6S          0.00001  -0.00007  -0.00335   0.01085   0.00586
  99        7PX         0.00000   0.00000   0.00000   0.00000   0.00000
 100        7PY        -0.00086  -0.00039  -0.00742   0.01510   0.00079
 101        7PZ        -0.00047  -0.00032  -0.00917   0.00163   0.00825
 102        8PX         0.00000   0.00000   0.00000   0.00000   0.00000
 103        8PY         0.00007   0.00006   0.01293  -0.02048   0.01571
 104        8PZ         0.00006   0.00004   0.02310   0.01011  -0.01114
 105        9PX         0.00000   0.00000   0.00000   0.00000   0.00000
 106        9PY        -0.00009  -0.00005   0.00602  -0.00962   0.00645
 107        9PZ        -0.00005  -0.00004   0.00988   0.00372  -0.00519
 108       10PX         0.00000   0.00000   0.00000   0.00000   0.00000
 109       10PY        -0.00001  -0.00006   0.00309   0.00215   0.01600
 110       10PZ        -0.00002  -0.00004   0.00263   0.00950  -0.00100
 111       11PX         0.00000   0.00000   0.00000   0.00000   0.00000
 112       11PY         0.00000  -0.00001  -0.00123   0.00377   0.00220
 113       11PZ         0.00000   0.00000   0.00093   0.00166   0.00262
 114       12D 0        0.00000   0.00000   0.00033   0.00144  -0.00093
 115       12D+1        0.00000   0.00000   0.00000   0.00000   0.00000
 116       12D-1        0.00000   0.00001   0.00344  -0.00586  -0.00593
 117       12D+2        0.00000   0.00000  -0.00266   0.00548   0.00303
 118       12D-2        0.00000   0.00000   0.00000   0.00000   0.00000
 119       13D 0        0.00000   0.00000  -0.00043   0.00215  -0.00246
 120       13D+1        0.00000   0.00000   0.00000   0.00000   0.00000
 121       13D-1        0.00003   0.00002   0.00381  -0.00509  -0.00489
 122       13D+2       -0.00001  -0.00001  -0.00136   0.00603   0.00133
 123       13D-2        0.00000   0.00000   0.00000   0.00000   0.00000
 124       14D 0        0.00000   0.00000  -0.00004  -0.00054  -0.00068
 125       14D+1        0.00000   0.00000   0.00000   0.00000   0.00000
 126       14D-1       -0.00001  -0.00002  -0.00199   0.00141   0.00189
 127       14D+2        0.00001   0.00002  -0.00089  -0.00193  -0.00293
 128       14D-2        0.00000   0.00000   0.00000   0.00000   0.00000
 129       15F 0        0.00000   0.00000  -0.00033   0.00140   0.00086
 130       15F+1        0.00000   0.00000   0.00000   0.00000   0.00000
 131       15F-1        0.00000   0.00000   0.00040  -0.00022  -0.00163
 132       15F+2       -0.00001   0.00000  -0.00076   0.00221   0.00221
 133       15F-2        0.00000   0.00000   0.00000   0.00000   0.00000
 134       15F+3        0.00000   0.00000   0.00000   0.00000   0.00000
 135       15F-3        0.00000   0.00000  -0.00059   0.00181   0.00084
 136       16F 0        0.00000   0.00000  -0.00043   0.00011  -0.00049
 137       16F+1        0.00000   0.00000   0.00000   0.00000   0.00000
 138       16F-1        0.00000   0.00000  -0.00023   0.00025  -0.00026
 139       16F+2        0.00000   0.00000   0.00016   0.00022  -0.00100
 140       16F-2        0.00000   0.00000   0.00000   0.00000   0.00000
 141       16F+3        0.00000   0.00000   0.00000   0.00000   0.00000
 142       16F-3        0.00000   0.00000   0.00096   0.00008  -0.00072
 143 4   Cl 1S          0.67388  -0.73504   0.01127  -0.04765   0.05212
 144        2S          0.00668  -0.00746  -0.04089   0.17870  -0.19496
 145        3S          0.00011  -0.00012   0.09236  -0.38031   0.41770
 146        4S          0.00014  -0.00017   0.01046  -0.04676   0.05244
 147        5S          0.00001   0.00006   0.05012  -0.22573   0.25682
 148        6S          0.00002   0.00006  -0.00289   0.01093  -0.00589
 149        7PX         0.00000   0.00000   0.00000   0.00000   0.00000
 150        7PY         0.00083  -0.00046   0.00743  -0.01510   0.00077
 151        7PZ        -0.00043   0.00036  -0.00927   0.00154  -0.00815
 152        8PX         0.00000   0.00000   0.00000   0.00000   0.00000
 153        8PY        -0.00007   0.00006  -0.01286   0.02042   0.01569
 154        8PZ         0.00005  -0.00005   0.02308   0.01021   0.01100
 155        9PX         0.00000   0.00000   0.00000   0.00000   0.00000
 156        9PY         0.00008  -0.00006  -0.00597   0.00962   0.00646
 157        9PZ        -0.00005   0.00004   0.01002   0.00379   0.00513
 158       10PX         0.00000   0.00000   0.00000   0.00000   0.00000
 159       10PY         0.00000  -0.00007  -0.00312  -0.00231   0.01608
 160       10PZ        -0.00001   0.00004   0.00285   0.00969   0.00082
 161       11PX         0.00000   0.00000   0.00000   0.00000   0.00000
 162       11PY         0.00000  -0.00001   0.00127  -0.00381   0.00221
 163       11PZ         0.00000   0.00001   0.00101   0.00168  -0.00265
 164       12D 0        0.00000   0.00000   0.00037   0.00146   0.00094
 165       12D+1        0.00000   0.00000   0.00000   0.00000   0.00000
 166       12D-1        0.00000   0.00001  -0.00349   0.00585  -0.00591
 167       12D+2        0.00000   0.00000  -0.00267   0.00548  -0.00302
 168       12D-2        0.00000   0.00000   0.00000   0.00000   0.00000
 169       13D 0        0.00000   0.00000  -0.00052   0.00211   0.00244
 170       13D+1        0.00000   0.00000   0.00000   0.00000   0.00000
 171       13D-1       -0.00002   0.00002  -0.00377   0.00509  -0.00487
 172       13D+2       -0.00001   0.00001  -0.00143   0.00600  -0.00134
 173       13D-2        0.00000   0.00000   0.00000   0.00000   0.00000
 174       14D 0        0.00000   0.00000   0.00001  -0.00054   0.00068
 175       14D+1        0.00000   0.00000   0.00000   0.00000   0.00000
 176       14D-1        0.00001  -0.00002   0.00196  -0.00144   0.00191
 177       14D+2        0.00001  -0.00002  -0.00093  -0.00196   0.00296
 178       14D-2        0.00000   0.00000   0.00000   0.00000   0.00000
 179       15F 0        0.00000   0.00000  -0.00032   0.00140  -0.00086
 180       15F+1        0.00000   0.00000   0.00000   0.00000   0.00000
 181       15F-1        0.00000   0.00000  -0.00041   0.00022  -0.00163
 182       15F+2        0.00000   0.00000  -0.00077   0.00221  -0.00221
 183       15F-2        0.00000   0.00000   0.00000   0.00000   0.00000
 184       15F+3        0.00000   0.00000   0.00000   0.00000   0.00000
 185       15F-3        0.00000   0.00000   0.00059  -0.00181   0.00084
 186       16F 0        0.00000   0.00000  -0.00044   0.00010   0.00047
 187       16F+1        0.00000   0.00000   0.00000   0.00000   0.00000
 188       16F-1        0.00000   0.00000   0.00028  -0.00023  -0.00024
 189       16F+2        0.00000   0.00000   0.00017   0.00022   0.00100
 190       16F-2        0.00000   0.00000   0.00000   0.00000   0.00000
 191       16F+3        0.00000   0.00000   0.00000   0.00000   0.00000
 192       16F-3        0.00000   0.00000  -0.00094  -0.00008  -0.00071
                          16        17        18        19        20
     Eigenvalues --     1.96277   1.95785   1.95159   1.94905   1.94743
   1 1   O  1S          0.03971  -0.00036  -0.00845   0.00000  -0.00238
   2        2S         -0.12878   0.00133   0.02179   0.00000   0.00644
   3        3S         -0.04226   0.00045   0.00680   0.00000   0.00184
   4        4S         -0.23867   0.00324   0.02420   0.00000   0.00288
   5        5S         -0.05962   0.00067   0.02431   0.00000   0.00010
   6        6PX         0.00000   0.00000   0.00000   0.02759   0.00000
   7        6PY         0.00114   0.29830   0.00072   0.00000   0.11140
   8        6PZ        -0.29530   0.00050  -0.00757   0.00000  -0.00859
   9        7PX         0.00000   0.00000   0.00000   0.03492   0.00000
  10        7PY         0.00156   0.37045   0.00097   0.00000   0.13615
  11        7PZ        -0.34967   0.00039  -0.01062   0.00000  -0.01045
  12        8PX         0.00000   0.00000   0.00000   0.01727   0.00000
  13        8PY         0.00217   0.27128   0.00081   0.00000   0.09490
  14        8PZ        -0.15255  -0.00095  -0.00030   0.00000  -0.00385
  15        9PX         0.00000   0.00000   0.00000  -0.01198   0.00000
  16        9PY         0.00052   0.03765   0.00000   0.00000   0.01518
  17        9PZ         0.00121  -0.00033   0.00063   0.00000   0.00005
  18       10D 0        0.01320   0.00000   0.00021   0.00000   0.00039
  19       10D+1        0.00000   0.00000   0.00000  -0.00313   0.00000
  20       10D-1        0.00010  -0.00900  -0.00002   0.00000  -0.00202
  21       10D+2       -0.00002   0.00008   0.00058   0.00000   0.00003
  22       10D-2        0.00000   0.00000   0.00000  -0.00002   0.00000
  23       11D 0        0.02658   0.00009   0.00139   0.00000   0.00074
  24       11D+1        0.00000   0.00000   0.00000  -0.00874   0.00000
  25       11D-1        0.00012  -0.02621  -0.00009   0.00000  -0.00257
  26       11D+2        0.00116   0.00024   0.00047   0.00000   0.00021
  27       11D-2        0.00000   0.00000   0.00000  -0.00006   0.00000
  28       12D 0       -0.00324   0.00025  -0.00115   0.00000  -0.00096
  29       12D+1        0.00000   0.00000   0.00000  -0.00699   0.00000
  30       12D-1       -0.00026  -0.01712  -0.00012   0.00000  -0.00143
  31       12D+2        0.00218   0.00017   0.00223   0.00000   0.00010
  32       12D-2        0.00000   0.00000   0.00000  -0.00009   0.00000
  33       13F 0       -0.00481  -0.00007  -0.00004   0.00000  -0.00017
  34       13F+1        0.00000   0.00000   0.00000   0.00166   0.00000
  35       13F-1       -0.00005   0.00562   0.00003   0.00000   0.00094
  36       13F+2       -0.00068  -0.00008  -0.00016   0.00000  -0.00006
  37       13F-2        0.00000   0.00000   0.00000   0.00002   0.00000
  38       13F+3        0.00000   0.00000   0.00000  -0.00001   0.00000
  39       13F-3        0.00000   0.00091   0.00000   0.00000   0.00046
  40       14F 0       -0.00410  -0.00004  -0.00024   0.00000  -0.00014
  41       14F+1        0.00000   0.00000   0.00000   0.00110   0.00000
  42       14F-1       -0.00006   0.00424   0.00002   0.00000  -0.00008
  43       14F+2       -0.00163  -0.00010   0.00032   0.00000  -0.00017
  44       14F-2        0.00000   0.00000   0.00000   0.00003   0.00000
  45       14F+3        0.00000   0.00000   0.00000   0.00073   0.00000
  46       14F-3        0.00000   0.00101   0.00002   0.00000   0.00012
  47 2   C  1S         -0.11377   0.00176  -0.03595   0.00000   0.00617
  48        2S          0.30977  -0.00479   0.10101   0.00000  -0.01762
  49        3S          0.08111  -0.00117   0.02501   0.00000  -0.00382
  50        4S          0.10666  -0.00335   0.05276   0.00000  -0.01283
  51        5S          0.00863  -0.00054   0.01335   0.00000  -0.00171
  52        6PX         0.00000   0.00000   0.00000   0.11089   0.00000
  53        6PY         0.00249   0.14449   0.00061   0.00000   0.01545
  54        6PZ         0.14798  -0.00231  -0.04929   0.00000   0.01329
  55        7PX         0.00000   0.00000   0.00000   0.15304   0.00000
  56        7PY         0.00297   0.18804   0.00077   0.00000   0.02348
  57        7PZ         0.15693  -0.00256  -0.07109   0.00000   0.01716
  58        8PX         0.00000   0.00000   0.00000   0.04537   0.00000
  59        8PY         0.00004   0.01619   0.00020   0.00000   0.00492
  60        8PZ        -0.00185  -0.00015  -0.02649   0.00000   0.00268
  61        9PX         0.00000   0.00000   0.00000   0.01279   0.00000
  62        9PY        -0.00025  -0.00873   0.00007   0.00000  -0.00992
  63        9PZ        -0.00250   0.00019  -0.01084   0.00000  -0.00042
  64       10D 0        0.01572  -0.00046   0.01076   0.00000   0.00093
  65       10D+1        0.00000   0.00000   0.00000  -0.00465   0.00000
  66       10D-1        0.00049   0.02075   0.00011   0.00000   0.00398
  67       10D+2        0.00003  -0.00017   0.00397   0.00000   0.00070
  68       10D-2        0.00000   0.00000   0.00000   0.00006   0.00000
  69       11D 0        0.00134  -0.00062   0.03300   0.00000   0.00061
  70       11D+1        0.00000   0.00000   0.00000  -0.02721   0.00000
  71       11D-1        0.00037   0.01994   0.00008   0.00000   0.00293
  72       11D+2       -0.00443  -0.00016   0.01549   0.00000   0.00136
  73       11D-2        0.00000   0.00000   0.00000   0.00012   0.00000
  74       12D 0        0.00025   0.00035  -0.02336   0.00000  -0.00220
  75       12D+1        0.00000   0.00000   0.00000  -0.00823   0.00000
  76       12D-1       -0.00007  -0.01540  -0.00006   0.00000   0.01406
  77       12D+2        0.00442   0.00042  -0.01757   0.00000  -0.00053
  78       12D-2        0.00000   0.00000   0.00000   0.00000   0.00000
  79       13F 0        0.00918  -0.00025  -0.00069   0.00000  -0.00006
  80       13F+1        0.00000   0.00000   0.00000   0.00252   0.00000
  81       13F-1        0.00025   0.00512   0.00000   0.00000   0.00853
  82       13F+2        0.00173  -0.00014   0.00173   0.00000  -0.00054
  83       13F-2        0.00000   0.00000   0.00000   0.00001   0.00000
  84       13F+3        0.00000   0.00000   0.00000  -0.00482   0.00000
  85       13F-3       -0.00003  -0.00291  -0.00001   0.00000   0.00150
  86       14F 0       -0.01002  -0.00001  -0.00458   0.00000  -0.00110
  87       14F+1        0.00000   0.00000   0.00000  -0.00050   0.00000
  88       14F-1       -0.00039   0.00159  -0.00009   0.00000   0.01437
  89       14F+2       -0.00323  -0.00012  -0.00099   0.00000  -0.00058
  90       14F-2        0.00000   0.00000   0.00000  -0.00004   0.00000
  91       14F+3        0.00000   0.00000   0.00000  -0.00312   0.00000
  92       14F-3       -0.00009   0.00077  -0.00002   0.00000   0.00345
  93 3   Cl 1S         -0.01172   0.01526  -0.01045   0.00000  -0.00013
  94        2S          0.04541  -0.05812   0.03970   0.00000   0.00071
  95        3S         -0.09235   0.12459  -0.08617   0.00000  -0.00012
  96        4S         -0.01243   0.01730  -0.01349   0.00000  -0.00045
  97        5S         -0.07817   0.12032  -0.08108   0.00000  -0.00019
  98        6S         -0.00818   0.00826  -0.02252   0.00000  -0.01076
  99        7PX         0.00000   0.00000   0.00000  -0.14731   0.00000
 100        7PY        -0.00321   0.00453  -0.10733   0.00000   0.09543
 101        7PZ        -0.01450   0.04387   0.10906   0.00000  -0.13110
 102        8PX         0.00000   0.00000   0.00000   0.34712   0.00000
 103        8PY         0.00384   0.00231   0.24794   0.00000  -0.22146
 104        8PZ         0.03184  -0.09583  -0.26047   0.00000   0.31239
 105        9PX         0.00000   0.00000   0.00000   0.16207   0.00000
 106        9PY         0.00367  -0.00320   0.11715   0.00000  -0.10716
 107        9PZ         0.01634  -0.04791  -0.12469   0.00000   0.14794
 108       10PX         0.00000   0.00000   0.00000   0.19489   0.00000
 109       10PY        -0.01539   0.03064   0.12792   0.00000  -0.13574
 110       10PZ         0.00609  -0.03766  -0.17666   0.00000   0.19722
 111       11PX         0.00000   0.00000   0.00000   0.00071   0.00000
 112       11PY        -0.00081   0.00442   0.00035   0.00000  -0.00610
 113       11PZ         0.00006   0.00264  -0.00748   0.00000   0.01024
 114       12D 0        0.00309  -0.00563  -0.00698   0.00000   0.00128
 115       12D+1        0.00000   0.00000   0.00000   0.00558   0.00000
 116       12D-1        0.00552  -0.01043   0.00148   0.00000  -0.00282
 117       12D+2       -0.00093   0.00449  -0.00940   0.00000   0.00183
 118       12D-2        0.00000   0.00000   0.00000   0.01068   0.00000
 119       13D 0        0.00220  -0.00864  -0.00849   0.00000  -0.00038
 120       13D+1        0.00000   0.00000   0.00000   0.00829   0.00000
 121       13D-1        0.00527  -0.00694   0.00103   0.00000  -0.00214
 122       13D+2        0.00173   0.00048  -0.01146   0.00000  -0.00029
 123       13D-2        0.00000   0.00000   0.00000   0.01639   0.00000
 124       14D 0        0.00234  -0.00603  -0.00801   0.00000   0.00117
 125       14D+1        0.00000   0.00000   0.00000   0.00178   0.00000
 126       14D-1       -0.00035  -0.00171  -0.00342   0.00000   0.00106
 127       14D+2        0.00316  -0.00291  -0.00568   0.00000   0.00019
 128       14D-2        0.00000   0.00000   0.00000   0.00526   0.00000
 129       15F 0        0.00033  -0.00022  -0.00196   0.00000   0.00114
 130       15F+1        0.00000   0.00000   0.00000   0.00052   0.00000
 131       15F-1        0.00141  -0.00359  -0.00402   0.00000   0.00259
 132       15F+2       -0.00032   0.00230  -0.00130   0.00000   0.00083
 133       15F-2        0.00000   0.00000   0.00000   0.00439   0.00000
 134       15F+3        0.00000   0.00000   0.00000  -0.00432   0.00000
 135       15F-3        0.00033   0.00051  -0.00321   0.00000   0.00124
 136       16F 0       -0.00158  -0.00137  -0.00048   0.00000  -0.00048
 137       16F+1        0.00000   0.00000   0.00000  -0.00045   0.00000
 138       16F-1       -0.00011  -0.00052  -0.00207   0.00000   0.00144
 139       16F+2       -0.00021  -0.00212  -0.00055   0.00000  -0.00057
 140       16F-2        0.00000   0.00000   0.00000   0.00222   0.00000
 141       16F+3        0.00000   0.00000   0.00000  -0.00243   0.00000
 142       16F-3        0.00116  -0.00162  -0.00110   0.00000  -0.00051
 143 4   Cl 1S         -0.01215  -0.01497  -0.01058   0.00000   0.00236
 144        2S          0.04706   0.05704   0.04020   0.00000  -0.00914
 145        3S         -0.09588  -0.12223  -0.08729   0.00000   0.01926
 146        4S         -0.01288  -0.01701  -0.01364   0.00000   0.00357
 147        5S         -0.08126  -0.11748  -0.08218   0.00000   0.02076
 148        6S         -0.00805  -0.00791  -0.02265   0.00000   0.01442
 149        7PX         0.00000   0.00000   0.00000  -0.14869   0.00000
 150        7PY         0.00356   0.00390   0.10696   0.00000   0.08520
 151        7PZ        -0.01505  -0.04418   0.10856   0.00000   0.14845
 152        8PX         0.00000   0.00000   0.00000   0.35033   0.00000
 153        8PY        -0.00451   0.00337  -0.24694   0.00000  -0.20084
 154        8PZ         0.03269   0.09672  -0.25942   0.00000  -0.35061
 155        9PX         0.00000   0.00000   0.00000   0.16358   0.00000
 156        9PY        -0.00403  -0.00246  -0.11667   0.00000  -0.09724
 157        9PZ         0.01695   0.04827  -0.12414   0.00000  -0.16653
 158       10PX         0.00000   0.00000   0.00000   0.19703   0.00000
 159       10PY         0.01549   0.03098  -0.12716   0.00000  -0.13350
 160       10PZ         0.00595   0.03878  -0.17636   0.00000  -0.21778
 161       11PX         0.00000   0.00000   0.00000   0.00092   0.00000
 162       11PY         0.00095   0.00444  -0.00036   0.00000  -0.00704
 163       11PZ         0.00000  -0.00275  -0.00759   0.00000  -0.01063
 164       12D 0        0.00321   0.00569  -0.00690   0.00000  -0.00065
 165       12D+1        0.00000   0.00000   0.00000   0.00560   0.00000
 166       12D-1       -0.00579  -0.01031  -0.00158   0.00000   0.00016
 167       12D+2       -0.00105  -0.00440  -0.00943   0.00000   0.00052
 168       12D-2        0.00000   0.00000   0.00000  -0.01070   0.00000
 169       13D 0        0.00218   0.00864  -0.00843   0.00000   0.00112
 170       13D+1        0.00000   0.00000   0.00000   0.00831   0.00000
 171       13D-1       -0.00539  -0.00689  -0.00109   0.00000   0.00051
 172       13D+2        0.00159  -0.00054  -0.01149   0.00000   0.00281
 173       13D-2        0.00000   0.00000   0.00000  -0.01643   0.00000
 174       14D 0        0.00227   0.00606  -0.00789   0.00000  -0.00162
 175       14D+1        0.00000   0.00000   0.00000   0.00175   0.00000
 176       14D-1        0.00039  -0.00169   0.00340   0.00000   0.00187
 177       14D+2        0.00313   0.00298  -0.00567   0.00000  -0.00070
 178       14D-2        0.00000   0.00000   0.00000  -0.00528   0.00000
 179       15F 0        0.00032   0.00023  -0.00194   0.00000  -0.00048
 180       15F+1        0.00000   0.00000   0.00000   0.00052   0.00000
 181       15F-1       -0.00151  -0.00360   0.00399   0.00000   0.00287
 182       15F+2       -0.00039  -0.00232  -0.00131   0.00000   0.00022
 183       15F-2        0.00000   0.00000   0.00000  -0.00442   0.00000
 184       15F+3        0.00000   0.00000   0.00000  -0.00434   0.00000
 185       15F-3       -0.00032   0.00052   0.00321   0.00000   0.00061
 186       16F 0       -0.00159   0.00133  -0.00044   0.00000   0.00045
 187       16F+1        0.00000   0.00000   0.00000  -0.00048   0.00000
 188       16F-1        0.00020  -0.00049   0.00207   0.00000   0.00151
 189       16F+2       -0.00018   0.00213  -0.00052   0.00000   0.00057
 190       16F-2        0.00000   0.00000   0.00000  -0.00222   0.00000
 191       16F+3        0.00000   0.00000   0.00000  -0.00244   0.00000
 192       16F-3       -0.00117  -0.00159   0.00110   0.00000  -0.00060
                          21        22        23        24        25
     Eigenvalues --     1.94726   1.94726   1.93696   1.93116   0.06665
   1 1   O  1S         -0.02724   0.00000   0.00016   0.00000   0.00000
   2        2S          0.07362   0.00000  -0.00048   0.00000   0.00000
   3        3S          0.02077   0.00000  -0.00016   0.00000   0.00000
   4        4S          0.02937   0.00000  -0.00025   0.00000   0.00000
   5        5S          0.00092   0.00000   0.00029   0.00000   0.00000
   6        6PX         0.00000   0.00002   0.00000   0.29513  -0.34429
   7        6PY        -0.00979   0.00000  -0.14083   0.00000   0.00000
   8        6PZ        -0.10235   0.00000   0.00140   0.00000   0.00000
   9        7PX         0.00000   0.00002   0.00000   0.36986  -0.39620
  10        7PY        -0.01209   0.00000  -0.17514   0.00000   0.00000
  11        7PZ        -0.12497   0.00000   0.00171   0.00000   0.00000
  12        8PX         0.00000  -0.00008   0.00000   0.24749  -0.07269
  13        8PY        -0.00813   0.00000  -0.12137   0.00000   0.00000
  14        8PZ        -0.04083   0.00000   0.00143   0.00000   0.00000
  15        9PX         0.00000  -0.00013   0.00000   0.02589  -0.00388
  16        9PY        -0.00116   0.00000  -0.02174   0.00000   0.00000
  17        9PZ         0.00343   0.00000   0.00030   0.00000   0.00000
  18       10D 0        0.00477   0.00000   0.00000   0.00000   0.00000
  19       10D+1        0.00000   0.00000   0.00000  -0.01036  -0.01309
  20       10D-1        0.00025   0.00000   0.00021   0.00000   0.00000
  21       10D+2        0.00003   0.00000  -0.00001   0.00000   0.00000
  22       10D-2        0.00000  -0.00038   0.00000  -0.00010  -0.00011
  23       11D 0        0.00928   0.00000   0.00000   0.00000   0.00000
  24       11D+1        0.00000   0.00003   0.00000  -0.02823  -0.01096
  25       11D-1        0.00057   0.00000  -0.00016   0.00000   0.00000
  26       11D+2        0.00205   0.00000  -0.00004   0.00000   0.00000
  27       11D-2        0.00000  -0.00173   0.00000  -0.00027  -0.00020
  28       12D 0       -0.01205   0.00000   0.00001   0.00000   0.00000
  29       12D+1        0.00000   0.00003   0.00000  -0.01256   0.01610
  30       12D-1        0.00005   0.00000  -0.00749   0.00000   0.00000
  31       12D+2        0.00225   0.00000   0.00009   0.00000   0.00000
  32       12D-2        0.00000  -0.00384   0.00000  -0.00011  -0.00003
  33       13F 0       -0.00189   0.00000  -0.00001   0.00000   0.00000
  34       13F+1        0.00000  -0.00001   0.00000   0.00541   0.00389
  35       13F-1       -0.00016   0.00000   0.00021   0.00000   0.00000
  36       13F+2       -0.00047   0.00000   0.00001   0.00000   0.00000
  37       13F-2        0.00000   0.00034   0.00000   0.00009   0.00001
  38       13F+3        0.00000   0.00000   0.00000   0.00105  -0.00254
  39       13F-3       -0.00004   0.00000  -0.00045   0.00000   0.00000
  40       14F 0       -0.00195   0.00000   0.00003   0.00000   0.00000
  41       14F+1        0.00000  -0.00003   0.00000   0.00347  -0.00534
  42       14F-1       -0.00011   0.00000  -0.00072   0.00000   0.00000
  43       14F+2       -0.00233   0.00000   0.00000   0.00000   0.00000
  44       14F-2        0.00000   0.00120   0.00000   0.00008   0.00003
  45       14F+3        0.00000  -0.00001   0.00000   0.00088  -0.00075
  46       14F-3       -0.00004   0.00000  -0.00019   0.00000   0.00000
  47 2   C  1S          0.07620   0.00000   0.00006   0.00000   0.00000
  48        2S         -0.21813   0.00000  -0.00012   0.00000   0.00000
  49        3S         -0.04696   0.00000  -0.00004   0.00000   0.00000
  50        4S         -0.16392   0.00000   0.00091   0.00000   0.00000
  51        5S         -0.02098   0.00000   0.00053   0.00000   0.00000
  52        6PX         0.00000   0.00042   0.00000   0.17268   0.30820
  53        6PY        -0.00039   0.00000   0.13970   0.00000   0.00000
  54        6PZ         0.17285   0.00000  -0.00059   0.00000   0.00000
  55        7PX         0.00000   0.00064   0.00000   0.21997   0.46722
  56        7PY        -0.00066   0.00000   0.19864   0.00000   0.00000
  57        7PZ         0.22136   0.00000  -0.00078   0.00000   0.00000
  58        8PX         0.00000   0.00024   0.00000   0.08356   0.15528
  59        8PY        -0.00033   0.00000   0.02857   0.00000   0.00000
  60        8PZ         0.03416   0.00000  -0.00111   0.00000   0.00000
  61        9PX         0.00000   0.00013   0.00000  -0.00178   0.01045
  62        9PY         0.00067   0.00000  -0.00027   0.00000   0.00000
  63        9PZ        -0.00727   0.00000  -0.00026   0.00000   0.00000
  64       10D 0        0.01290   0.00000   0.00010   0.00000   0.00000
  65       10D+1        0.00000  -0.00002   0.00000   0.02389  -0.00026
  66       10D-1       -0.00016   0.00000  -0.02896   0.00000   0.00000
  67       10D+2        0.00959   0.00000   0.00008   0.00000   0.00000
  68       10D-2        0.00000  -0.01043   0.00000   0.00017   0.00000
  69       11D 0        0.00924   0.00000   0.00039   0.00000   0.00000
  70       11D+1        0.00000  -0.00005   0.00000   0.03717   0.02332
  71       11D-1        0.00015   0.00000  -0.07218   0.00000   0.00000
[...]
  73       11D-2        0.00000   0.00000  -0.00471   0.00000   0.00000
  74       12D 0        0.02606   1.24964   0.00000   0.10390   0.17055
  75       12D+1        0.00000   0.00000   0.75342   0.00000   0.00000
  76       12D-1        7.06329  -0.00041   0.00000   2.28923   0.97820
  77       12D+2       -0.01585   1.43813   0.00000   0.03038   0.08393
  78       12D-2        0.00000   0.00000   0.00579   0.00000   0.00000
  79       13F 0       -0.00110  -0.05438   0.00000   0.00295   0.00376
  80       13F+1        0.00000   0.00000  -0.09374   0.00000   0.00000
  81       13F-1       -0.02175   0.00123   0.00000   0.07716  -0.01963
  82       13F+2        0.00005  -0.03896   0.00000  -0.00036  -0.00136
  83       13F-2        0.00000   0.00000  -0.00073   0.00000   0.00000
  84       13F+3        0.00000   0.00000   0.03856   0.00000   0.00000
  85       13F-3       -0.00668  -0.00061   0.00000  -0.01063   0.01856
  86       14F 0       -0.00058   0.10746   0.00000  -0.00330  -0.00059
  87       14F+1        0.00000   0.00000  -0.17853   0.00000   0.00000
  88       14F-1        0.44799   0.00786   0.00000   0.19199  -0.21028
  89       14F+2        0.00074   0.26099   0.00000   0.00194   0.02055
  90       14F-2        0.00000   0.00000  -0.00287   0.00000   0.00000
  91       14F+3        0.00000   0.00000   0.01353   0.00000   0.00000
  92       14F-3        0.19601   0.00763   0.00000   0.19128  -0.10370
  93 3   Cl 1S          0.02885  -0.01493   0.00000   0.01242   0.00930
  94        2S          0.46201  -0.22535   0.00000   0.16237   0.16230
  95        3S          1.16166  -0.58774   0.00000   0.47404   0.37971
  96        4S         -0.22859   0.09760   0.00000   0.01097  -0.14129
  97        5S         -6.83569   1.73034   0.00000  -3.68215  -1.01632
  98        6S         -2.95676   1.44415   0.00000 -12.79187   1.56625
  99        7PX         0.00000   0.00000  -0.01679   0.00000   0.00000
 100        7PY         0.00692   0.00343   0.00000   0.01297  -0.00145
 101        7PZ        -0.01116  -0.00821   0.00000  -0.00174   0.00389
 102        8PX         0.00000   0.00000  -0.21408   0.00000   0.00000
 103        8PY        -0.00301   0.05266   0.00000   0.21624   0.05949
 104        8PZ        -0.28562  -0.09935   0.00000  -0.01302   0.09494
 105        9PX         0.00000   0.00000   0.06517   0.00000   0.00000
 106        9PY        -0.02005  -0.02909   0.00000  -0.04865   0.00777
 107        9PZ         0.04515   0.01629   0.00000   0.00991  -0.01400
 108       10PX         0.00000   0.00000   0.93099   0.00000   0.00000
 109       10PY        -3.37107   0.40044   0.00000  -4.78117  -0.44918
 110       10PZ        -1.09388   1.90030   0.00000  -3.42771   0.04841
 111       11PX         0.00000   0.00000  -2.25644   0.00000   0.00000
 112       11PY        -0.49903  -0.65748   0.00000  -2.25212  -2.98478
 113       11PZ         0.32466  -2.02859   0.00000  -1.60522   0.65026
 114       12D 0        0.00828  -0.04144   0.00000   0.02103   0.00509
 115       12D+1        0.00000   0.00000  -0.02687   0.00000   0.00000
 116       12D-1        0.05081  -0.08414   0.00000  -0.01726  -0.01552
 117       12D+2       -0.01086   0.06992   0.00000   0.03314   0.05973
 118       12D-2        0.00000   0.00000  -0.00991   0.00000   0.00000
 119       13D 0       -0.12372   0.16643   0.00000  -0.12599   0.00062
 120       13D+1        0.00000   0.00000   0.08390   0.00000   0.00000
 121       13D-1       -0.38550   0.36986   0.00000  -0.05786   0.13829
 122       13D+2        0.12725  -0.28489   0.00000  -0.07122  -0.26529
 123       13D-2        0.00000   0.00000   0.03604   0.00000   0.00000
 124       14D 0        0.59077   0.26189   0.00000  -0.05970   0.29138
 125       14D+1        0.00000   0.00000  -0.08000   0.00000   0.00000
 126       14D-1       -0.17470   0.11623   0.00000  -1.57044  -0.11661
 127       14D+2        0.25572   0.37236   0.00000   1.07188   0.72905
 128       14D-2        0.00000   0.00000   0.19223   0.00000   0.00000
 129       15F 0       -0.03347  -0.00165   0.00000  -0.00850   0.01394
 130       15F+1        0.00000   0.00000  -0.00492   0.00000   0.00000
 131       15F-1       -0.00529  -0.04198   0.00000   0.04793  -0.00411
 132       15F+2       -0.00100   0.02895   0.00000  -0.01334   0.00424
 133       15F-2        0.00000   0.00000  -0.01672   0.00000   0.00000
 134       15F+3        0.00000   0.00000   0.04301   0.00000   0.00000
 135       15F-3        0.03200  -0.00141   0.00000   0.00696   0.01122
 136       16F 0        0.13676   0.00449   0.00000   0.03772  -0.02654
 137       16F+1        0.00000   0.00000  -0.00139   0.00000   0.00000
 138       16F-1       -0.05431   0.17878   0.00000  -0.19385   0.05641
 139       16F+2        0.09755  -0.13251   0.00000   0.11604  -0.02948
 140       16F-2        0.00000   0.00000   0.03688   0.00000   0.00000
 141       16F+3        0.00000   0.00000  -0.10394   0.00000   0.00000
 142       16F-3       -0.03259  -0.03790   0.00000   0.02767  -0.00143
 143 4   Cl 1S         -0.02906  -0.01481   0.00000  -0.01145  -0.00855
 144        2S         -0.46529  -0.22230   0.00000  -0.14698  -0.14819
 145        3S         -1.16989  -0.58219   0.00000  -0.43537  -0.34830
 146        4S          0.23072   0.09247   0.00000  -0.01991   0.12801
 147        5S          6.81326   1.78962   0.00000   3.58344   0.90180
 148        6S          2.97335   1.61191   0.00000  12.92320  -0.87252
 149        7PX         0.00000   0.00000  -0.01665   0.00000   0.00000
 150        7PY         0.00659  -0.00331   0.00000   0.01322  -0.00068
 151        7PZ         0.01093  -0.00735   0.00000   0.00098  -0.00600
 152        8PX         0.00000   0.00000  -0.21254   0.00000   0.00000
 153        8PY        -0.00415  -0.05257   0.00000   0.21789   0.07479
 154        8PZ         0.27878  -0.08587   0.00000   0.00187  -0.12935
 155        9PX         0.00000   0.00000   0.06457   0.00000   0.00000
 156        9PY        -0.01845   0.02840   0.00000  -0.05008   0.00555
 157        9PZ        -0.04467   0.01304   0.00000  -0.00657   0.02130
 158       10PX         0.00000   0.00000   0.92216   0.00000   0.00000
 159       10PY        -3.36958  -0.45937   0.00000  -4.67606  -0.39802
 160       10PZ         1.15515   1.94867   0.00000   3.45436   0.17276
 161       11PX         0.00000   0.00000  -2.24199   0.00000   0.00000
 162       11PY        -0.50030   0.67148   0.00000  -2.29675  -3.09173
 163       11PZ        -0.27337  -2.01219   0.00000   1.56032  -0.74995
 164       12D 0       -0.00704  -0.04241   0.00000  -0.02135  -0.00686
 165       12D+1        0.00000   0.00000  -0.02641   0.00000   0.00000
 166       12D-1        0.05170   0.08342   0.00000  -0.01957  -0.01468
 167       12D+2        0.01080   0.06983   0.00000  -0.03455  -0.05854
 168       12D-2        0.00000   0.00000   0.00974   0.00000   0.00000
 169       13D 0        0.11911   0.17507   0.00000   0.12707   0.00813
 170       13D+1        0.00000   0.00000   0.08223   0.00000   0.00000
 171       13D-1       -0.38810  -0.37218   0.00000  -0.04756   0.13632
 172       13D+2       -0.12683  -0.28458   0.00000   0.07863   0.26464
 173       13D-2        0.00000   0.00000  -0.03520   0.00000   0.00000
 174       14D 0       -0.55716   0.26241   0.00000   0.07079  -0.24545
 175       14D+1        0.00000   0.00000  -0.07805   0.00000   0.00000
 176       14D-1       -0.20981  -0.13860   0.00000  -1.55798  -0.15591
 177       14D+2       -0.26182   0.37044   0.00000  -1.03517  -0.68603
 178       14D-2        0.00000   0.00000  -0.19068   0.00000   0.00000
 179       15F 0        0.03345  -0.00039   0.00000   0.00815  -0.01269
 180       15F+1        0.00000   0.00000  -0.00489   0.00000   0.00000
 181       15F-1       -0.00307   0.04256   0.00000   0.04555  -0.00441
 182       15F+2        0.00188   0.02881   0.00000   0.01169  -0.00207
 183       15F-2        0.00000   0.00000   0.01605   0.00000   0.00000
 184       15F+3        0.00000   0.00000   0.04294   0.00000   0.00000
 185       15F-3        0.03156   0.00184   0.00000   0.00816   0.01056
 186       16F 0       -0.13638   0.00307   0.00000  -0.03698   0.02372
 187       16F+1        0.00000   0.00000  -0.00125   0.00000   0.00000
 188       16F-1       -0.06355  -0.18374   0.00000  -0.18711   0.05095
 189       16F+2       -0.10305  -0.13241   0.00000  -0.10827   0.02342
 190       16F-2        0.00000   0.00000  -0.03561   0.00000   0.00000
 191       16F+3        0.00000   0.00000  -0.10342   0.00000   0.00000
 192       16F-3       -0.03046   0.03587   0.00000   0.02062  -0.00328
                         191       192
     Eigenvalues --     0.00000   0.00000
   1 1   O  1S          0.07121   0.07099
   2        2S          0.38073   0.36324
   3        3S          0.01079  -0.01500
   4        4S         -4.63635  -2.96340
   5        5S         -9.44919  -8.51556
   6        6PX         0.00000   0.00000
   7        6PY        -0.00082   0.00009
   8        6PZ        -0.00973   0.00441
   9        7PX         0.00000   0.00000
  10        7PY         0.00411  -0.00005
  11        7PZ         0.15280  -0.01110
  12        8PX         0.00000   0.00000
  13        8PY        -0.02557   0.03873
  14        8PZ         2.74808   2.14675
  15        9PX         0.00000   0.00000
  16        9PY         0.19781  -0.00428
  17        9PZ        -1.38477  -0.04374
  18       10D 0        0.03862   0.04110
  19       10D+1        0.00000   0.00000
  20       10D-1       -0.00053   0.00064
  21       10D+2       -0.02808  -0.01394
  22       10D-2        0.00000   0.00000
  23       11D 0       -0.31771  -0.21725
  24       11D+1        0.00000   0.00000
  25       11D-1        0.00088  -0.00433
  26       11D+2        0.08008   0.04302
  27       11D-2        0.00000   0.00000
  28       12D 0       -0.40814  -0.30899
  29       12D+1        0.00000   0.00000
  30       12D-1        0.00878  -0.01596
  31       12D+2       -0.44662  -0.13110
  32       12D-2        0.00000   0.00000
  33       13F 0        0.00929  -0.00968
  34       13F+1        0.00000   0.00000
  35       13F-1        0.00174  -0.00044
  36       13F+2       -0.01500  -0.00609
  37       13F-2        0.00000   0.00000
  38       13F+3        0.00000   0.00000
  39       13F-3        0.00004  -0.00003
  40       14F 0        0.12916   0.11628
  41       14F+1        0.00000   0.00000
  42       14F-1       -0.00342   0.00442
  43       14F+2        0.06856   0.02572
  44       14F-2        0.00000   0.00000
  45       14F+3        0.00000   0.00000
  46       14F-3        0.00022   0.00016
  47 2   C  1S          0.20678   0.02747
  48        2S          1.14425   0.23964
  49        3S         -0.04745   0.10565
  50        4S          6.57550  12.28150
  51        5S         -2.30357  19.32949
  52        6PX         0.00000   0.00000
  53        6PY         0.00081   0.00031
  54        6PZ         0.01961   0.00931
  55        7PX         0.00000   0.00000
  56        7PY         0.02063   0.00341
  57        7PZ         1.05253   0.59724
  58        8PX         0.00000   0.00000
  59        8PY         0.34578   0.04199
  60        8PZ         2.83200  -0.74240
  61        9PX         0.00000   0.00000
  62        9PY        -0.24077   0.09526
  63        9PZ         7.24279  -0.54600
  64       10D 0        0.06258   0.04599
  65       10D+1        0.00000   0.00000
  66       10D-1        0.00176   0.00094
  67       10D+2        0.01284  -0.02113
  68       10D-2        0.00000   0.00000
  69       11D 0        0.51258   0.20937
  70       11D+1        0.00000   0.00000
  71       11D-1        0.02923  -0.00762
  72       11D+2       -0.06023  -0.02770
  73       11D-2        0.00000   0.00000
  74       12D 0        3.22652   1.63155
  75       12D+1        0.00000   0.00000
  76       12D-1       -0.06769   0.01152
  77       12D+2        1.51935  -0.74805
  78       12D-2        0.00000   0.00000
  79       13F 0        0.06126  -0.01192
  80       13F+1        0.00000   0.00000
  81       13F-1        0.00021  -0.00037
  82       13F+2       -0.01150   0.00018
  83       13F-2        0.00000   0.00000
  84       13F+3        0.00000   0.00000
  85       13F-3       -0.00115  -0.00030
  86       14F 0       -0.04824  -0.04244
  87       14F+1        0.00000   0.00000
  88       14F-1        0.00560  -0.00613
  89       14F+2        0.23710   0.02141
  90       14F-2        0.00000   0.00000
  91       14F+3        0.00000   0.00000
  92       14F-3        0.00426  -0.00063
  93 3   Cl 1S          0.00702   0.00051
  94        2S          0.12190  -0.01296
  95        3S          0.28639   0.00733
  96        4S         -0.09471   0.06515
  97        5S         -0.73275  -0.56048
  98        6S          5.03600 -10.13335
  99        7PX         0.00000   0.00000
 100        7PY        -0.00575   0.01034
 101        7PZ        -0.01741   0.00578
 102        8PX         0.00000   0.00000
 103        8PY        -0.09910   0.17957
 104        8PZ        -0.27752   0.10352
 105        9PX         0.00000   0.00000
 106        9PY         0.02057  -0.03672
 107        9PZ         0.06466  -0.02096
 108       10PX         0.00000   0.00000
 109       10PY        -0.65636  -2.87211
 110       10PZ         1.62092  -1.32977
 111       11PX         0.00000   0.00000
 112       11PY         1.09343  -1.64834
 113       11PZ        -1.04914  -1.31726
 114       12D 0       -0.01888   0.00180
 115       12D+1        0.00000   0.00000
 116       12D-1        0.00928  -0.00186
 117       12D+2       -0.00059  -0.02285
 118       12D-2        0.00000   0.00000
 119       13D 0        0.07760   0.01019
 120       13D+1        0.00000   0.00000
 121       13D-1       -0.05767  -0.00356
 122       13D+2        0.03832   0.09998
 123       13D-2        0.00000   0.00000
 124       14D 0        0.27667   0.13789
 125       14D+1        0.00000   0.00000
 126       14D-1        0.20269  -0.75537
 127       14D+2        0.40270   0.64043
 128       14D-2        0.00000   0.00000
 129       15F 0        0.00176  -0.01657
 130       15F+1        0.00000   0.00000
 131       15F-1        0.01324   0.00779
 132       15F+2        0.00130  -0.04125
 133       15F-2        0.00000   0.00000
 134       15F+3        0.00000   0.00000
 135       15F-3       -0.00278  -0.03434
 136       16F 0       -0.00111   0.05455
 137       16F+1        0.00000   0.00000
 138       16F-1       -0.00840  -0.01875
 139       16F+2        0.01704   0.13715
 140       16F-2        0.00000   0.00000
 141       16F+3        0.00000   0.00000
 142       16F-3        0.04796   0.11617
 143 4   Cl 1S          0.00836   0.00038
 144        2S          0.14247  -0.01572
 145        3S          0.33923   0.00178
 146        4S         -0.10595   0.06896
 147        5S         -0.94895  -0.54959
 148        6S          4.33970 -10.28204
 149        7PX         0.00000   0.00000
 150        7PY         0.00466  -0.01052
 151        7PZ        -0.01679   0.00566
 152        8PX         0.00000   0.00000
 153        8PY         0.06997  -0.18195
 154        8PZ        -0.25925   0.10167
 155        9PX         0.00000   0.00000
 156        9PY        -0.01699   0.03730
 157        9PZ         0.06290  -0.02037
 158       10PX         0.00000   0.00000
 159       10PY         0.95180   2.90182
 160       10PZ         1.40645  -1.36221
 161       11PX         0.00000   0.00000
 162       11PY        -0.65525   1.61511
 163       11PZ        -1.10703  -1.34952
 164       12D 0       -0.01742   0.00185
 165       12D+1        0.00000   0.00000
 166       12D-1       -0.00605   0.00171
 167       12D+2        0.00747  -0.02339
 168       12D-2        0.00000   0.00000
 169       13D 0        0.07138   0.00860
 170       13D+1        0.00000   0.00000
 171       13D-1        0.03960   0.00736
 172       13D+2        0.00273   0.10284
 173       13D-2        0.00000   0.00000
 174       14D 0        0.28491   0.12898
 175       14D+1        0.00000   0.00000
 176       14D-1       -0.08884   0.76925
 177       14D+2        0.53334   0.63887
 178       14D-2        0.00000   0.00000
 179       15F 0        0.00310  -0.01643
 180       15F+1        0.00000   0.00000
 181       15F-1       -0.01552  -0.00822
 182       15F+2        0.00085  -0.04138
 183       15F-2        0.00000   0.00000
 184       15F+3        0.00000   0.00000
 185       15F-3        0.00142   0.03459
 186       16F 0       -0.00358   0.05462
 187       16F+1        0.00000   0.00000
 188       16F-1        0.01531   0.02272
 189       16F+2        0.01962   0.13919
 190       16F-2        0.00000   0.00000
 191       16F+3        0.00000   0.00000
 192       16F-3       -0.04798  -0.11653
          Condensed to atoms (all electrons):
              1          2          3          4
     1  O    8.034177   0.435582  -0.073971  -0.074982
     2  C    0.435582   4.966642   0.135817   0.136907
     3  Cl  -0.073971   0.135817  17.040118  -0.100437
     4  Cl  -0.074982   0.136907  -0.100437  17.041231
 Mulliken atomic charges:
              1
     1  O   -0.320806
     2  C    0.325052
     3  Cl  -0.001527
     4  Cl  -0.002719
 Sum of Mulliken atomic charges =   0.00000
 Mulliken charges with hydrogens summed into heavy atoms:
              1
     1  O   -0.320806
     2  C    0.325052
     3  Cl  -0.001527
     4  Cl  -0.002719
 Sum of Mulliken charges with hydrogens summed into heavy atoms =   0.00000
 Electronic spatial extent (au):  <R**2>=            613.6893
 Charge=              0.0000 electrons
 Dipole moment (field-independent basis, Debye):
    X=              0.0000    Y=             -0.0295    Z=             -1.2394  Tot=              1.2397
 Quadrupole moment (field-independent basis, Debye-Ang):
   XX=            -35.0850   YY=            -34.3835   ZZ=            -36.2852
   XY=              0.0000   XZ=              0.0000   YZ=              0.0347
 Traceless Quadrupole moment (field-independent basis, Debye-Ang):
   XX=              0.1662   YY=              0.8677   ZZ=             -1.0339
   XY=              0.0000   XZ=              0.0000   YZ=              0.0347
 Octapole moment (field-independent basis, Debye-Ang**2):
  XXX=              0.0000  YYY=             -0.2153  ZZZ=            106.2006  XYY=              0.0000
  XXY=             -0.0630  XXZ=             36.0666  XZZ=              0.0000  YZZ=             -0.1480
  YYZ=             29.7041  XYZ=              0.0000
 Hexadecapole moment (field-independent basis, Debye-Ang**3):
 XXXX=            -37.1315 YYYY=           -329.2958 ZZZZ=           -383.1006 XXXY=              0.0000
 XXXZ=              0.0000 YYYX=              0.0000 YYYZ=              0.0177 ZZZX=              0.0000
 ZZZY=              0.1518 XXYY=            -65.2567 XXZZ=            -71.0859 YYZZ=           -106.8878
 XXYZ=             -0.0072 YYXZ=              0.0000 ZZXY=              0.0000
 N-N= 1.917650869694D+02 E-N=-2.837759384533D+03  KE= 1.032421926779D+03
 1\1\GINC-TRAPISTA\SP\RQCISD-FC\Aug-CC-pVTZ\C1Cl2O1\BRUNS\27-Nov-2021\0
 \\# qcisd/aug-cc-pvtz nosymm density=current output=wfn\\cl2co-wavefun
 ction\\0,1\O,0,0.,0.01,0.683397\C,0,0.,0.,-0.494687\Cl,0,0.,-1.44687,-
 1.469805\Cl,0,0.,1.44687,-1.469805\\Version=EM64L-G09RevB.01\HF=-1031.
 8027209\MP2=-1032.5821366\MP3=-1032.6011888\MP4D=-1032.6208561\MP4DQ=-
 1032.5983352\MP4SDQ=-1032.6073181\QCISD=-1032.6055868\RMSD=4.842e-09\D
 ipole=0.,-0.0115996,-0.4876055\Quadrupole=0.1235775,0.6451258,-0.76870
 33,0.,0.,0.025793\PG=CS [SG(C1Cl2O1)]\\@

 Writing a WFN file to GAUSSIAN.wfn.


 THERE ARE PEOPLE SO ADDICTED TO EXAGERATING THEY
 CAN'T TELL THE TRUTH WITHOUT LYING. -- FORTUNE COOKIE
 Job cpu time:  0 days  2 hours  8 minutes  5.2 seconds.
 File lengths (MBytes):  RWF=  18183 Int=      0 D2E=      0 Chk=      3 Scr=      1
 Normal termination of Gaussian 09 at Sat Nov 27 11:24:21 2021.
