 cl2co-wavefunction
GAUSSIAN            192 MOL ORBITALS    372 PRIMITIVES        4 NUCLEI
  O    1    (CENTRE  1)   0.00000000  0.00000000  1.29143317  CHARGE =  8.0
  C    2    (CENTRE  2)   0.00000000  0.00000000 -0.93482295  CHARGE =  6.0
  Cl   3    (CENTRE  3)   0.00000000 -2.73418805 -2.79642618  CHARGE = 17.0
  Cl   4    (CENTRE  4)   0.00000000  2.73418805 -2.77752892  CHARGE = 17.0
CENTRE ASSIGNMENTS    1  1  1  1  1  1  1  1  1  1  1  1  1  1  1  1  1  1  1  1
CENTRE ASSIGNMENTS    1  1  1  1  1  1  1  1  1  1  1  1  1  1  1  1  1  1  1  1
CENTRE ASSIGNMENTS    1  1  1  1  1  1  1  1  1  1  1  1  1  1  1  1  1  1  1  1
CENTRE ASSIGNMENTS    1  1  1  1  1  1  1  1  1  1  1  1  2  2  2  2  2  2  2  2
CENTRE ASSIGNMENTS    2  2  2  2  2  2  2  2  2  2  2  2  2  2  2  2  2  2  2  2
CENTRE ASSIGNMENTS    2  2  2  2  2  2  2  2  2  2  2  2  2  2  2  2  2  2  2  2
CENTRE ASSIGNMENTS    2  2  2  2  2  2  2  2  2  2  2  2  2  2  2  2  2  2  2  2
CENTRE ASSIGNMENTS    2  2  2  2  3  3  3  3  3  3  3  3  3  3  3  3  3  3  3  3
CENTRE ASSIGNMENTS    3  3  3  3  3  3  3  3  3  3  3  3  3  3  3  3  3  3  3  3
CENTRE ASSIGNMENTS    3  3  3  3  3  3  3  3  3  3  3  3  3  3  3  3  3  3  3  3
CENTRE ASSIGNMENTS    3  3  3  3  3  3  3  3  3  3  3  3  3  3  3  3  3  3  3  3
CENTRE ASSIGNMENTS    3  3  3  3  3  3  3  3  3  3  3  3  3  3  3  3  3  3  3  3
CENTRE ASSIGNMENTS    3  3  3  3  3  3  3  3  3  3  3  3  3  3  3  3  3  3  4  4
CENTRE ASSIGNMENTS    4  4  4  4  4  4  4  4  4  4  4  4  4  4  4  4  4  4  4  4
CENTRE ASSIGNMENTS    4  4  4  4  4  4  4  4  4  4  4  4  4  4  4  4  4  4  4  4
CENTRE ASSIGNMENTS    4  4  4  4  4  4  4  4  4  4  4  4  4  4  4  4  4  4  4  4
CENTRE ASSIGNMENTS    4  4  4  4  4  4  4  4  4  4  4  4  4  4  4  4  4  4  4  4
CENTRE ASSIGNMENTS    4  4  4  4  4  4  4  4  4  4  4  4  4  4  4  4  4  4  4  4
CENTRE ASSIGNMENTS    4  4  4  4  4  4  4  4  4  4  4  4
TYPE ASSIGNMENTS      1  1  1  1  1  1  1  1  1  1  1  1  1  1  1  1  2  2  2  3
TYPE ASSIGNMENTS      3  3  4  4  4  2  3  4  2  3  4  2  3  4  5  6  7  8  9 10
TYPE ASSIGNMENTS      5  6  7  8  9 10  5  6  7  8  9 10 11 12 13 17 14 15 18 19
TYPE ASSIGNMENTS     16 20 11 12 13 17 14 15 18 19 16 20  1  1  1  1  1  1  1  1
TYPE ASSIGNMENTS      1  1  1  1  1  1  1  1  2  2  2  3  3  3  4  4  4  2  3  4
TYPE ASSIGNMENTS      2  3  4  2  3  4  5  6  7  8  9 10  5  6  7  8  9 10  5  6
TYPE ASSIGNMENTS      7  8  9 10 11 12 13 17 14 15 18 19 16 20 11 12 13 17 14 15
TYPE ASSIGNMENTS     18 19 16 20  1  1  1  1  1  1  1  1  1  1  1  1  1  1  1  1
TYPE ASSIGNMENTS      1  1  1  1  1  1  1  1  1  1  1  1  1  1  1  2  2  2  2  2
TYPE ASSIGNMENTS      2  3  3  3  3  3  3  4  4  4  4  4  4  2  2  2  2  2  2  3
TYPE ASSIGNMENTS      3  3  3  3  3  4  4  4  4  4  4  2  3  4  2  3  4  2  3  4
TYPE ASSIGNMENTS      5  6  7  8  9 10  5  6  7  8  9 10  5  6  7  8  9 10 11 12
TYPE ASSIGNMENTS     13 17 14 15 18 19 16 20 11 12 13 17 14 15 18 19 16 20  1  1
TYPE ASSIGNMENTS      1  1  1  1  1  1  1  1  1  1  1  1  1  1  1  1  1  1  1  1
TYPE ASSIGNMENTS      1  1  1  1  1  1  1  1  1  2  2  2  2  2  2  3  3  3  3  3
TYPE ASSIGNMENTS      3  4  4  4  4  4  4  2  2  2  2  2  2  3  3  3  3  3  3  4
TYPE ASSIGNMENTS      4  4  4  4  4  2  3  4  2  3  4  2  3  4  5  6  7  8  9 10
TYPE ASSIGNMENTS      5  6  7  8  9 10  5  6  7  8  9 10 11 12 13 17 14 15 18 19
TYPE ASSIGNMENTS     16 20 11 12 13 17 14 15 18 19 16 20
EXPONENTS  0.1533000D+05 0.2299000D+04 0.5224000D+03 0.1473000D+03 0.4755000D+02
EXPONENTS  0.1676000D+02 0.6207000D+01 0.5224000D+03 0.1473000D+03 0.4755000D+02
EXPONENTS  0.1676000D+02 0.6207000D+01 0.6882000D+00 0.1752000D+01 0.2384000D+00
EXPONENTS  0.7376000D-01 0.3446000D+02 0.7749000D+01 0.2280000D+01 0.3446000D+02
EXPONENTS  0.7749000D+01 0.2280000D+01 0.3446000D+02 0.7749000D+01 0.2280000D+01
EXPONENTS  0.7156000D+00 0.7156000D+00 0.7156000D+00 0.2140000D+00 0.2140000D+00
EXPONENTS  0.2140000D+00 0.5974000D-01 0.5974000D-01 0.5974000D-01 0.2314000D+01
EXPONENTS  0.2314000D+01 0.2314000D+01 0.2314000D+01 0.2314000D+01 0.2314000D+01
EXPONENTS  0.6450000D+00 0.6450000D+00 0.6450000D+00 0.6450000D+00 0.6450000D+00
EXPONENTS  0.6450000D+00 0.2140000D+00 0.2140000D+00 0.2140000D+00 0.2140000D+00
EXPONENTS  0.2140000D+00 0.2140000D+00 0.1428000D+01 0.1428000D+01 0.1428000D+01
EXPONENTS  0.1428000D+01 0.1428000D+01 0.1428000D+01 0.1428000D+01 0.1428000D+01
EXPONENTS  0.1428000D+01 0.1428000D+01 0.5000000D+00 0.5000000D+00 0.5000000D+00
EXPONENTS  0.5000000D+00 0.5000000D+00 0.5000000D+00 0.5000000D+00 0.5000000D+00
EXPONENTS  0.5000000D+00 0.5000000D+00 0.8236000D+04 0.1235000D+04 0.2808000D+03
EXPONENTS  0.7927000D+02 0.2559000D+02 0.8997000D+01 0.3319000D+01 0.2808000D+03
EXPONENTS  0.7927000D+02 0.2559000D+02 0.8997000D+01 0.3319000D+01 0.3643000D+00
EXPONENTS  0.9059000D+00 0.1285000D+00 0.4402000D-01 0.1871000D+02 0.4133000D+01
EXPONENTS  0.1200000D+01 0.1871000D+02 0.4133000D+01 0.1200000D+01 0.1871000D+02
EXPONENTS  0.4133000D+01 0.1200000D+01 0.3827000D+00 0.3827000D+00 0.3827000D+00
EXPONENTS  0.1209000D+00 0.1209000D+00 0.1209000D+00 0.3569000D-01 0.3569000D-01
EXPONENTS  0.3569000D-01 0.1097000D+01 0.1097000D+01 0.1097000D+01 0.1097000D+01
EXPONENTS  0.1097000D+01 0.1097000D+01 0.3180000D+00 0.3180000D+00 0.3180000D+00
EXPONENTS  0.3180000D+00 0.3180000D+00 0.3180000D+00 0.1000000D+00 0.1000000D+00
EXPONENTS  0.1000000D+00 0.1000000D+00 0.1000000D+00 0.1000000D+00 0.7610000D+00
EXPONENTS  0.7610000D+00 0.7610000D+00 0.7610000D+00 0.7610000D+00 0.7610000D+00
EXPONENTS  0.7610000D+00 0.7610000D+00 0.7610000D+00 0.7610000D+00 0.2680000D+00
EXPONENTS  0.2680000D+00 0.2680000D+00 0.2680000D+00 0.2680000D+00 0.2680000D+00
EXPONENTS  0.2680000D+00 0.2680000D+00 0.2680000D+00 0.2680000D+00 0.4561000D+06
EXPONENTS  0.6833000D+05 0.1555000D+05 0.4405000D+04 0.1439000D+04 0.5204000D+03
EXPONENTS  0.2031000D+03 0.8396000D+02 0.3620000D+02 0.1583000D+02 0.6334000D+01
EXPONENTS  0.4405000D+04 0.1439000D+04 0.5204000D+03 0.2031000D+03 0.8396000D+02
EXPONENTS  0.3620000D+02 0.1583000D+02 0.6334000D+01 0.2694000D+01 0.1439000D+04
EXPONENTS  0.2031000D+03 0.8396000D+02 0.3620000D+02 0.1583000D+02 0.6334000D+01
EXPONENTS  0.2694000D+01 0.4313000D+00 0.9768000D+00 0.1625000D+00 0.5910000D-01
EXPONENTS  0.6633000D+03 0.1568000D+03 0.4998000D+02 0.1842000D+02 0.7240000D+01
EXPONENTS  0.2922000D+01 0.6633000D+03 0.1568000D+03 0.4998000D+02 0.1842000D+02
EXPONENTS  0.7240000D+01 0.2922000D+01 0.6633000D+03 0.1568000D+03 0.4998000D+02
EXPONENTS  0.1842000D+02 0.7240000D+01 0.2922000D+01 0.1568000D+03 0.4998000D+02
EXPONENTS  0.1842000D+02 0.7240000D+01 0.2922000D+01 0.3818000D+00 0.1568000D+03
EXPONENTS  0.4998000D+02 0.1842000D+02 0.7240000D+01 0.2922000D+01 0.3818000D+00
EXPONENTS  0.1568000D+03 0.4998000D+02 0.1842000D+02 0.7240000D+01 0.2922000D+01
EXPONENTS  0.3818000D+00 0.1022000D+01 0.1022000D+01 0.1022000D+01 0.1301000D+00
EXPONENTS  0.1301000D+00 0.1301000D+00 0.4190000D-01 0.4190000D-01 0.4190000D-01
EXPONENTS  0.1046000D+01 0.1046000D+01 0.1046000D+01 0.1046000D+01 0.1046000D+01
EXPONENTS  0.1046000D+01 0.3440000D+00 0.3440000D+00 0.3440000D+00 0.3440000D+00
EXPONENTS  0.3440000D+00 0.3440000D+00 0.1350000D+00 0.1350000D+00 0.1350000D+00
EXPONENTS  0.1350000D+00 0.1350000D+00 0.1350000D+00 0.7060000D+00 0.7060000D+00
EXPONENTS  0.7060000D+00 0.7060000D+00 0.7060000D+00 0.7060000D+00 0.7060000D+00
EXPONENTS  0.7060000D+00 0.7060000D+00 0.7060000D+00 0.3120000D+00 0.3120000D+00
EXPONENTS  0.3120000D+00 0.3120000D+00 0.3120000D+00 0.3120000D+00 0.3120000D+00
EXPONENTS  0.3120000D+00 0.3120000D+00 0.3120000D+00 0.4561000D+06 0.6833000D+05
EXPONENTS  0.1555000D+05 0.4405000D+04 0.1439000D+04 0.5204000D+03 0.2031000D+03
EXPONENTS  0.8396000D+02 0.3620000D+02 0.1583000D+02 0.6334000D+01 0.4405000D+04
EXPONENTS  0.1439000D+04 0.5204000D+03 0.2031000D+03 0.8396000D+02 0.3620000D+02
EXPONENTS  0.1583000D+02 0.6334000D+01 0.2694000D+01 0.1439000D+04 0.2031000D+03
EXPONENTS  0.8396000D+02 0.3620000D+02 0.1583000D+02 0.6334000D+01 0.2694000D+01
EXPONENTS  0.4313000D+00 0.9768000D+00 0.1625000D+00 0.5910000D-01 0.6633000D+03
EXPONENTS  0.1568000D+03 0.4998000D+02 0.1842000D+02 0.7240000D+01 0.2922000D+01
EXPONENTS  0.6633000D+03 0.1568000D+03 0.4998000D+02 0.1842000D+02 0.7240000D+01
EXPONENTS  0.2922000D+01 0.6633000D+03 0.1568000D+03 0.4998000D+02 0.1842000D+02
EXPONENTS  0.7240000D+01 0.2922000D+01 0.1568000D+03 0.4998000D+02 0.1842000D+02
EXPONENTS  0.7240000D+01 0.2922000D+01 0.3818000D+00 0.1568000D+03 0.4998000D+02
EXPONENTS  0.1842000D+02 0.7240000D+01 0.2922000D+01 0.3818000D+00 0.1568000D+03
EXPONENTS  0.4998000D+02 0.1842000D+02 0.7240000D+01 0.2922000D+01 0.3818000D+00
EXPONENTS  0.1022000D+01 0.1022000D+01 0.1022000D+01 0.1301000D+00 0.1301000D+00
EXPONENTS  0.1301000D+00 0.4190000D-01 0.4190000D-01 0.4190000D-01 0.1046000D+01
EXPONENTS  0.1046000D+01 0.1046000D+01 0.1046000D+01 0.1046000D+01 0.1046000D+01
EXPONENTS  0.3440000D+00 0.3440000D+00 0.3440000D+00 0.3440000D+00 0.3440000D+00
EXPONENTS  0.3440000D+00 0.1350000D+00 0.1350000D+00 0.1350000D+00 0.1350000D+00
EXPONENTS  0.1350000D+00 0.1350000D+00 0.7060000D+00 0.7060000D+00 0.7060000D+00
EXPONENTS  0.7060000D+00 0.7060000D+00 0.7060000D+00 0.7060000D+00 0.7060000D+00
EXPONENTS  0.7060000D+00 0.7060000D+00 0.3120000D+00 0.3120000D+00 0.3120000D+00
EXPONENTS  0.3120000D+00 0.3120000D+00 0.3120000D+00 0.3120000D+00 0.3120000D+00
EXPONENTS  0.3120000D+00 0.3120000D+00
MO    1     MO 0.0        OCC NO =    2.0000387  ORB. ENERGY =    0.000000
  0.25022641D-03  0.46638088D-03  0.79081432D-03  0.11968134D-02  0.14929304D-02
  0.12811564D-02  0.49061482D-03  0.78235245D-07  0.83941284D-06  0.30942338D-05
  0.90473580D-05  0.10902506D-04 -0.13133224D-04  0.22419774D-04 -0.13641668D-05
  0.96819170D-05  0.92894206D-12  0.90076132D-12  0.60764826D-12 -0.87059656D-03
 -0.84418581D-03 -0.56948276D-03  0.64704278D-04  0.62741384D-04  0.42324967D-04
  0.26530526D-12 -0.93521458D-03  0.25188686D-04  0.54282119D-13 -0.74955720D-03
  0.21127350D-04 -0.25548250D-14 -0.19399856D-04  0.47322119D-06  0.86930593D-05
 -0.14742576D-04  0.60495169D-05  0.17645077D-13  0.76739543D-13 -0.20130788D-03
 -0.65777646D-05  0.13512285D-04 -0.69345204D-05  0.23362904D-14 -0.35199311D-13
 -0.66261553D-04  0.17939334D-05  0.20525133D-05 -0.38464467D-05 -0.17283062D-13
 -0.40588762D-14  0.10921938D-03 -0.14089251D-13 -0.14493412D-03 -0.14397754D-05
  0.62619097D-13  0.22421619D-03  0.23906037D-05 -0.20351345D-13  0.21058617D-03
  0.19287224D-05 -0.91268631D-13  0.44778069D-14 -0.10436917D-04  0.24374089D-05
 -0.25334511D-13 -0.19905966D-03  0.18823817D-05  0.11901091D-13  0.23037041D-03
 -0.91946084D-05  0.27769270D-13 -0.15641619D-03 -0.29159129D-03 -0.49282900D-03
 -0.74081391D-03 -0.90995720D-03 -0.76797177D-03 -0.28877744D-03 -0.17031862D-06
 -0.12730261D-05 -0.47575894D-05 -0.13272934D-04 -0.17782072D-04  0.20997311D-04
 -0.27852849D-05 -0.92121401D-06  0.30907875D-05 -0.65538131D-12 -0.61446164D-12
 -0.43753329D-12  0.10943874D-02  0.10260578D-02  0.73061424D-03  0.43172019D-04
  0.40476512D-04  0.28821688D-04 -0.15162085D-12  0.14176705D-03  0.34609988D-04
 -0.11589579D-13  0.73848355D-04 -0.72815374D-05  0.28910852D-14 -0.89602535D-05
 -0.80288482D-06 -0.20666809D-05  0.30688473D-04 -0.28621792D-04  0.12499934D-12
  0.17975619D-12  0.17767440D-03  0.38362122D-05 -0.12871833D-04  0.90356212D-05
 -0.54041878D-14 -0.16487679D-13  0.80213328D-04  0.80013924D-08  0.38602006D-05
 -0.38682020D-05  0.75511384D-14  0.67164715D-14  0.53920585D-04  0.17589534D-13
  0.25183687D-03  0.40429331D-05 -0.24744482D-13  0.38389712D-04 -0.66269937D-05
 -0.28024120D-13 -0.79390033D-03 -0.55018055D-05 -0.37665367D-13 -0.61657636D-14
 -0.25450708D-03 -0.92283032D-06  0.20994202D-13  0.25758668D-04  0.41119090D-05
 -0.24969110D-14  0.73776259D-03 -0.13434180D-05  0.38682092D-13 -0.27831848D-03
 -0.52070418D-03 -0.89966134D-03 -0.14584567D-02 -0.22148065D-02 -0.30783727D-02
 -0.36599492D-02 -0.32604099D-02 -0.16191885D-02 -0.26067565D-03 -0.27502821D-05
 -0.16216898D-05 -0.54096857D-04 -0.18851672D-03 -0.67887922D-03 -0.14965048D-02
 -0.21065957D-02  0.10049148D-03  0.27568463D-02  0.16301060D-02  0.28395378D-06
  0.34393737D-05  0.71724513D-05  0.20569342D-04  0.10681373D-05 -0.88704977D-04
 -0.22919662D-03  0.18673862D-03  0.78146162D-04 -0.10018262D-03 -0.64268392D-04
  0.23209472D-08  0.30572304D-08  0.33726037D-08  0.28012114D-08  0.14875210D-08
  0.38378820D-09 -0.45546466D+01 -0.59995351D+01 -0.66184264D+01 -0.54971213D+01
 -0.29191240D+01 -0.75314924D+00  0.64698501D+01  0.85223061D+01  0.94014377D+01
  0.78086301D+01  0.41465993D+01  0.10698443D+01 -0.94620768D-13  0.91473271D-12
  0.12898686D-11  0.18448533D-11 -0.93420775D-14 -0.16919045D-11  0.23240816D-03
 -0.22467725D-02 -0.31681838D-02 -0.45313409D-02  0.22946072D-04  0.41556670D-02
 -0.31875018D-03  0.30814717D-02  0.43451967D-02  0.62147808D-02 -0.31470775D-04
 -0.56995401D-02  0.15294229D-10 -0.29225840D-01  0.41715319D-01 -0.11279699D-12
  0.33928733D-03 -0.54245265D-03 -0.55032444D-14  0.10636661D-04 -0.17022270D-04
 -0.12929600D-04 -0.73134865D-03  0.74427825D-03  0.17620245D-12  0.13876414D-12
  0.65325639D-03  0.57438045D-04  0.41519267D-03 -0.47263072D-03 -0.12490749D-12
 -0.81869182D-13 -0.31688835D-03  0.48890241D-05 -0.10335235D-05 -0.38555007D-05
  0.25330704D-14  0.26852996D-14 -0.48957731D-05  0.86585774D-15 -0.15945822D-04
 -0.14523904D-05  0.33573095D-15  0.20049914D-04  0.35842463D-04 -0.29333042D-14
  0.27787551D-04 -0.31485292D-04  0.11937414D-13  0.81232687D-14  0.71656021D-04
 -0.43445178D-04 -0.21277571D-13  0.11771980D-04  0.49353789D-04 -0.30922350D-14
 -0.22674004D-03  0.80981746D-04 -0.41009108D-13  0.16285822D-03  0.30469035D-03
  0.52643735D-03  0.85341680D-03  0.12959953D-02  0.18013115D-02  0.21416214D-02
  0.19078307D-02  0.94746909D-03  0.15253451D-03  0.16093292D-05  0.10622408D-05
  0.35434574D-04  0.12348240D-03  0.44468010D-03  0.98024195D-03  0.13798643D-02
 -0.65824024D-04 -0.18057921D-02 -0.10677535D-02 -0.28305308D-06 -0.34284640D-05
 -0.71497003D-05 -0.20504096D-04 -0.10647491D-05  0.88423604D-04  0.22846961D-03
 -0.18614629D-03 -0.55252515D-04  0.92625681D-04  0.52923302D-04  0.62937577D-09
  0.82903512D-09  0.91455551D-09  0.75960996D-09  0.40337397D-09  0.10407259D-09
 -0.48125308D+01 -0.63392289D+01 -0.69931617D+01 -0.58083684D+01 -0.30844048D+01
 -0.79579256D+00 -0.70269273D+01 -0.92561071D+01 -0.10210935D+02 -0.84809811D+01
 -0.45036363D+01 -0.11619617D+01 -0.20620386D-13  0.19934463D-12  0.28109673D-12
  0.40204269D-12 -0.20358876D-14 -0.36871106D-12  0.24347243D-03 -0.23537348D-02
 -0.33190118D-02 -0.47470649D-02  0.24038468D-04  0.43535062D-02  0.34596936D-03
 -0.33446091D-02 -0.47162480D-02 -0.67454822D-02  0.34158173D-04  0.61862434D-02
  0.42414115D-11 -0.30882640D-01 -0.45326463D-01 -0.24689896D-13  0.34753872D-03
  0.56453168D-03 -0.24069836D-14  0.11350518D-04  0.17584410D-04  0.14951543D-04
  0.76086328D-03 -0.77581483D-03  0.14841259D-13  0.30301639D-13  0.70269225D-03
 -0.58842691D-04 -0.43702317D-03  0.49586586D-03  0.26696770D-13 -0.14185155D-13
 -0.36642846D-03 -0.50922396D-05  0.37904093D-05  0.13018303D-05  0.16564241D-14
 -0.51252772D-14 -0.41109120D-05 -0.41474126D-14 -0.13000473D-04  0.28449072D-05
 -0.92538564D-14  0.16943081D-04 -0.36869153D-04  0.21696094D-13  0.22058339D-04
  0.28334431D-04 -0.78531334D-14  0.43414954D-14  0.76030533D-04  0.41289503D-04
 -0.16999711D-14  0.11391861D-04 -0.52596189D-04 -0.11324515D-13 -0.23948346D-03
 -0.71272320D-04  0.95242275D-14
MO    2     MO 0.0        OCC NO =    2.0000377  ORB. ENERGY =    0.000000
  0.54568830D-02  0.10170733D-01  0.17245906D-01  0.26099845D-01  0.32557500D-01
  0.27939179D-01  0.10699221D-01  0.84567765D-06  0.90735662D-05  0.33446874D-04
  0.97796696D-04  0.11784977D-03 -0.14196254D-03  0.53750458D-03  0.21299733D-03
  0.30013471D-03  0.10244716D-11  0.99339288D-12  0.67013697D-12  0.83846771D-05
  0.81303163D-05  0.54846634D-05  0.15831505D-02  0.15351234D-02  0.10355852D-02
  0.29478333D-12  0.32950887D-04  0.58139132D-03  0.43491858D-13  0.22172710D-04
  0.49284427D-03 -0.38301323D-14  0.30506682D-06  0.10322128D-04  0.13199058D-03
 -0.21461932D-03  0.82628738D-04  0.28891453D-13  0.30807264D-13  0.57256475D-05
 -0.74928236D-04  0.24475710D-03 -0.16982886D-03  0.67057471D-14 -0.18267838D-13
 -0.31881739D-05  0.58154758D-04  0.21351685D-04 -0.79506443D-04 -0.38839813D-13
  0.92248397D-15 -0.30848985D-05 -0.16118686D-13  0.35727936D-05  0.34444842D-04
  0.60096725D-13 -0.12948586D-04 -0.42435983D-04 -0.11740668D-13  0.22302051D-05
 -0.60898542D-04 -0.18913561D-12  0.67218854D-14  0.25120551D-06  0.33740388D-04
 -0.24108488D-13  0.76488276D-05  0.33023442D-04  0.39428317D-14 -0.84024442D-05
 -0.13424461D-03  0.60473221D-13 -0.38172902D-02 -0.71161979D-02 -0.12027344D-01
 -0.18079341D-01 -0.22207233D-01 -0.18742121D-01 -0.70475269D-02 -0.41396254D-05
 -0.30941135D-04 -0.11563409D-03 -0.32260110D-03 -0.43219653D-03  0.51034352D-03
 -0.10214662D-03 -0.81777924D-05  0.86471762D-04 -0.71308580D-12 -0.66856326D-12
 -0.47605687D-12 -0.20593672D-04 -0.19307877D-04 -0.13748359D-04  0.97689629D-03
  0.91590237D-03  0.65217705D-03 -0.15021910D-12 -0.93376571D-05  0.82233047D-03
 -0.13158093D-13 -0.79550807D-06 -0.20960113D-03  0.32447408D-14  0.53489012D-06
 -0.21905753D-04 -0.69193859D-04  0.67980726D-03 -0.61061340D-03  0.29639228D-12
  0.19825554D-12 -0.15576224D-05  0.82101400D-04 -0.16196439D-03  0.79862994D-04
 -0.11887146D-13 -0.13436201D-14 -0.49413880D-05 -0.13203447D-06  0.11498443D-03
 -0.11485239D-03  0.17208464D-13  0.10277992D-13 -0.10024202D-05  0.15627989D-13
 -0.73613149D-05  0.13738510D-03 -0.27277041D-13 -0.20435402D-07 -0.17674131D-03
 -0.19606927D-13  0.22104380D-04 -0.23541398D-03 -0.87368816D-13 -0.64977784D-14
  0.84193064D-05 -0.69638146D-04  0.20259519D-13 -0.12652361D-05  0.95006492D-04
 -0.76618332D-15 -0.23992683D-04  0.11390795D-03  0.88242703D-13 -0.14714376D-02
 -0.27529028D-02 -0.47564054D-02 -0.77106920D-02 -0.11709426D-01 -0.16275000D-01
 -0.19349728D-01 -0.17237410D-01 -0.85604623D-02 -0.13781620D-02 -0.14540423D-04
 -0.71967789D-05 -0.24007250D-03 -0.83660459D-03 -0.30127486D-02 -0.66412293D-02
 -0.93487074D-02  0.44596381D-03  0.12234407D-01  0.72341284D-02  0.88454817D-07
  0.10714038D-05  0.22342998D-05  0.64075828D-05  0.33273685D-06 -0.27632604D-04
 -0.71397343D-04  0.58171194D-04  0.32758921D-03 -0.18960580D-03 -0.16579475D-03
  0.36572845D-08  0.48174992D-08  0.53144558D-08  0.44140716D-08  0.23439945D-08
  0.60476284D-09  0.43306940D+01  0.57045371D+01  0.62929974D+01  0.52268271D+01
  0.27755902D+01  0.71611679D+00 -0.73291390D+01 -0.96541906D+01 -0.10650083D+02
 -0.88457282D+01 -0.46973271D+01 -0.12119349D+01 -0.15199775D-12  0.14694165D-11
  0.20720306D-11  0.29635519D-11 -0.15007010D-13 -0.27178566D-11 -0.18686910D-03
  0.18065302D-02  0.25473962D-02  0.36434505D-02 -0.18449920D-04 -0.33413877D-02
  0.34300116D-03 -0.33159145D-02 -0.46757856D-02 -0.66876103D-02  0.33865117D-04
  0.61331694D-02  0.24044541D-10  0.27861805D-01 -0.47443377D-01 -0.17762634D-12
 -0.18545745D-03  0.23834891D-03 -0.81510749D-14 -0.12242752D-04  0.77286712D-05
  0.21512714D-04  0.45657510D-03 -0.47808781D-03  0.31230361D-12  0.21564507D-12
 -0.40900914D-03  0.41934673D-05 -0.29054532D-03  0.28635185D-03 -0.19745591D-12
 -0.12835776D-12  0.44999920D-03 -0.47133936D-06  0.37824320D-04 -0.37352981D-04
  0.72316236D-14  0.77386898D-14 -0.16532877D-04  0.39672078D-14 -0.32181623D-04
  0.10313891D-04  0.29725622D-14  0.51117251D-04  0.36455054D-05 -0.14874186D-13
  0.45427617D-04 -0.34587179D-04  0.10753006D-13  0.10861120D-13 -0.50723862D-04
 -0.11395943D-04 -0.33666245D-13  0.14394398D-04 -0.40634838D-04  0.10828836D-14
  0.13777719D-03  0.74822666D-04 -0.62475497D-13 -0.15430176D-02 -0.28868212D-02
 -0.49877867D-02 -0.80857883D-02 -0.12279045D-01 -0.17066718D-01 -0.20291020D-01
 -0.18075946D-01 -0.89768968D-02 -0.14452044D-02 -0.15247760D-04 -0.75504031D-05
 -0.25186881D-03 -0.87771237D-03 -0.31607844D-02 -0.69675558D-02 -0.98080698D-02
  0.46787689D-03  0.12835563D-01  0.75895878D-02  0.99225965D-07  0.12018688D-05
  0.25063706D-05  0.71878345D-05  0.37325424D-06 -0.30997428D-04 -0.80091401D-04
  0.65254704D-04  0.34737086D-03 -0.19706656D-03 -0.17155189D-03 -0.43389710D-09
 -0.57154398D-09 -0.63050247D-09 -0.52368167D-09 -0.27808950D-09 -0.71748544D-10
 -0.39303554D+01 -0.51771975D+01 -0.57112592D+01 -0.47436480D+01 -0.25190087D+01
 -0.64991741D+00 -0.68627381D+01 -0.90398316D+01 -0.99723493D+01 -0.82828169D+01
 -0.43984056D+01 -0.11348116D+01  0.26144369D-13 -0.25274694D-12 -0.35639957D-12
 -0.50974566D-12  0.25812803D-14  0.46748485D-12  0.16715114D-03 -0.16159097D-02
 -0.22786013D-02 -0.32590027D-02  0.16503131D-04  0.29888128D-02  0.32049467D-03
 -0.30983363D-02 -0.43689776D-02 -0.62487937D-02  0.31643012D-04  0.57307332D-02
 -0.26982547D-11 -0.25285703D-01 -0.44440537D-01  0.35560960D-13  0.15739591D-03
  0.19968362D-03 -0.43650635D-15  0.11286655D-04  0.64050195D-05  0.21435675D-04
  0.40132956D-03 -0.42276523D-03  0.13842349D-12 -0.40806250D-13  0.37165557D-03
  0.74574012D-05 -0.25916842D-03  0.25171102D-03 -0.35176883D-13  0.29538896D-13
 -0.43685965D-03 -0.27349095D-06  0.37561719D-04 -0.37288228D-04  0.26856275D-14
 -0.96567920D-14  0.17032608D-04 -0.62528555D-14  0.33631094D-04  0.98812944D-05
 -0.20033243D-13 -0.52744504D-04  0.59642038D-05  0.38791809D-13 -0.48148777D-04
 -0.35608087D-04 -0.47571474D-15  0.17384491D-14  0.45410867D-04 -0.15142174D-04
  0.11527175D-13 -0.14616740D-04 -0.37814976D-04 -0.16742522D-13 -0.12161586D-03
  0.83241499D-04 -0.12717686D-13
MO    3     MO 0.0        OCC NO =    2.0000334  ORB. ENERGY =    0.000000
  0.77635059D-11  0.14469899D-10  0.24535746D-10  0.37132243D-10  0.46319546D-10
  0.39749062D-10  0.15221779D-10  0.97907900D-15  0.10504875D-13  0.38722948D-13
  0.11322363D-12  0.13643998D-12 -0.16435641D-12  0.70802929D-12  0.28440531D-13
  0.64198199D-13  0.23322651D-04  0.22615126D-04  0.15256030D-04 -0.99230435D-13
 -0.96220142D-13 -0.64909540D-13  0.15416814D-12  0.14949124D-12  0.10084591D-12
  0.70513003D-05 -0.91567010D-13  0.12883518D-12  0.41909347D-05 -0.65513558D-13
  0.11402416D-12  0.27637448D-06 -0.26068773D-14  0.41365861D-14  0.39859217D-14
 -0.48960564D-13  0.44974643D-13 -0.11621533D-03  0.46890161D-05 -0.28319339D-13
 -0.12551029D-13  0.54351418D-13 -0.41800389D-13 -0.31901426D-04 -0.16022585D-05
  0.33272598D-15  0.15226449D-13 -0.43440463D-15 -0.14792044D-13  0.15816627D-03
 -0.78159201D-06  0.67050155D-14  0.64930246D-07 -0.14297768D-13  0.58607390D-14
  0.21425259D-05  0.19061299D-13 -0.16797406D-14 -0.23373166D-05  0.23832005D-13
 -0.15902476D-13  0.77855585D-03  0.14814543D-06 -0.31674834D-15  0.42448844D-14
 -0.10103233D-05 -0.18117885D-13  0.32388316D-14  0.56588705D-06  0.19068130D-13
 -0.15973485D-13 -0.24364158D-03  0.24376430D-11  0.45442576D-11  0.76804145D-11
  0.11545095D-10  0.14181082D-10  0.11968333D-10  0.45004057D-11 -0.19512436D-15
 -0.14584337D-14 -0.54504998D-14 -0.15206046D-13 -0.20371909D-13  0.24055426D-13
  0.19313948D-12  0.41651069D-13  0.29657253D-13 -0.26278490D-04 -0.24637755D-04
 -0.17543549D-04  0.93022745D-13  0.87214737D-13  0.62102088D-13  0.40564406D-12
  0.38031709D-12  0.27080842D-12 -0.41977709D-05  0.74941273D-14  0.20713845D-12
 -0.79148215D-06 -0.24841802D-13 -0.40535016D-13 -0.64746329D-07 -0.13632355D-14
 -0.63735268D-14 -0.16251573D-13  0.16839953D-12 -0.15214796D-12 -0.11958725D-02
  0.46650465D-05  0.26700562D-13  0.56142811D-14 -0.27675978D-13  0.22061697D-13
  0.42737345D-04 -0.36849165D-05  0.20976189D-13 -0.16367241D-14  0.31892085D-13
 -0.30255361D-13 -0.71655308D-04 -0.50640505D-06  0.10253903D-13  0.43061986D-06
  0.22564362D-13  0.31344404D-13 -0.11483593D-05  0.24292156D-14 -0.49508851D-13
 -0.14350027D-06 -0.70122301D-13 -0.44524361D-13  0.34729950D-03 -0.99845708D-07
 -0.23047956D-13 -0.16437457D-13  0.11341608D-05  0.47383880D-14  0.20199620D-13
 -0.83462368D-06  0.64405481D-13  0.29112751D-13 -0.35292109D-03  0.60309586D-10
  0.11283280D-09  0.19495005D-09  0.31603694D-09  0.47993242D-09  0.66706091D-09
  0.79308431D-09  0.70650706D-09  0.35086634D-09  0.56486513D-10  0.59596608D-12
 -0.14004512D-13 -0.46716708D-12 -0.16279838D-11 -0.58626331D-11 -0.12923445D-10
 -0.18192040D-10  0.86781958D-12  0.23807443D-10  0.14077192D-10 -0.32480324D-16
 -0.39341605D-15 -0.82042769D-15 -0.23528438D-14 -0.12217990D-15  0.10146603D-13
  0.26216875D-13 -0.21360275D-13  0.87068577D-12 -0.13546963D-12 -0.60564731D-13
 -0.82070264D+01 -0.10810574D+02 -0.11925755D+02 -0.99052733D+01 -0.52599750D+01
 -0.13571010D+01  0.87151080D-09  0.11479836D-08  0.12664056D-08  0.10518490D-08
  0.55856102D-09  0.14411166D-09 -0.98714953D-09 -0.13003069D-08 -0.14344420D-08
 -0.11914164D-08 -0.63267517D-09 -0.16323350D-09  0.35813243D-03 -0.34621939D-02
 -0.48820548D-02 -0.69826299D-02  0.35359055D-04  0.64037302D-02 -0.30728666D-13
  0.29706497D-12  0.41889262D-12  0.59912725D-12 -0.30338961D-14 -0.54945620D-12
  0.46523164D-13 -0.44975601D-12 -0.63420293D-12 -0.90707795D-12  0.45933151D-14
  0.83187604D-12 -0.53628118D-01  0.59245767D-11 -0.62431949D-11  0.42495148D-03
 -0.22569606D-13 -0.15432209D-13  0.15288267D-04 -0.23161982D-14  0.59274041D-16
 -0.20865659D-13  0.60348451D-13 -0.39482792D-13 -0.90181490D-03 -0.51635191D-03
  0.27985750D-13  0.21763162D-13 -0.45212580D-13  0.23449419D-13  0.46420693D-03
  0.31753614D-03  0.42875924D-13  0.56371748D-15  0.10327611D-13 -0.10891328D-13
 -0.21325012D-04 -0.36580353D-04 -0.60883846D-14 -0.22344519D-04 -0.13647988D-13
  0.28023232D-14 -0.42611988D-04  0.20804665D-13  0.77566991D-14  0.10964554D-03
  0.20139298D-13 -0.16163669D-13 -0.13505812D-04 -0.17375338D-04 -0.50380481D-14
 -0.66716732D-14  0.88760631D-04  0.75303046D-14 -0.24388247D-14 -0.36634618D-04
  0.75838396D-14  0.22453844D-13  0.14783470D-03 -0.74991886D-10 -0.14030182D-09
 -0.24241042D-09 -0.39297577D-09 -0.59677142D-09 -0.82945612D-09 -0.98615977D-09
 -0.87850539D-09 -0.43628436D-09 -0.70238090D-10 -0.74105334D-12 -0.71238329D-13
 -0.23763914D-11 -0.82812483D-11 -0.29822116D-10 -0.65739143D-10 -0.92539496D-10
  0.44144356D-11  0.12110400D-09  0.71608038D-10 -0.14067848D-14 -0.17039599D-13
 -0.35534288D-13 -0.10190615D-12 -0.52918446D-14  0.43946875D-12  0.11355029D-11
 -0.92515428D-12  0.46432767D-11 -0.13311468D-12 -0.32663240D-13  0.82213805D+01
  0.10829481D+02  0.11946613D+02  0.99225976D+01  0.52691747D+01  0.13594746D+01
 -0.15786126D-08 -0.20794021D-08 -0.22939060D-08 -0.19052685D-08 -0.10117505D-08
 -0.26103691D-09 -0.23709089D-08 -0.31230417D-08 -0.34452038D-08 -0.28615115D-08
 -0.15195420D-08 -0.39204978D-09 -0.35896758D-03  0.34702676D-02  0.48934396D-02
  0.69989131D-02 -0.35441511D-04 -0.64186634D-02  0.68271753D-13 -0.66000738D-12
 -0.93067931D-12 -0.13311176D-11  0.67405922D-14  0.12207604D-11  0.11444876D-12
 -0.11064170D-11 -0.15601634D-11 -0.22314464D-11  0.11299731D-13  0.20464468D-11
  0.53737220D-01 -0.10464761D-10 -0.15138711D-10 -0.42519991D-03  0.50179372D-13
  0.11358972D-12 -0.15207200D-04  0.34555867D-14  0.40442998D-14 -0.34845847D-13
  0.22248410D-12 -0.18763826D-12 -0.90617019D-03  0.51090789D-03  0.25412847D-13
  0.92012525D-14 -0.12211251D-12  0.11291126D-12  0.47104457D-03 -0.31806901D-03
 -0.10471858D-12 -0.15955292D-14  0.12545750D-13 -0.10950221D-13 -0.21319648D-04
  0.36506849D-04 -0.35544450D-15  0.22622397D-04  0.10063096D-13  0.46782447D-14
  0.41760342D-04 -0.14961813D-13 -0.16628793D-14 -0.10962753D-03 -0.15227476D-13
 -0.12371855D-13 -0.10334540D-04  0.17616812D-04  0.18239386D-13  0.25373359D-15
 -0.90326771D-04 -0.46212821D-14 -0.11710264D-13  0.37476335D-04 -0.50096875D-13
  0.10949064D-13  0.14784919D-03
MO    4     MO 0.0        OCC NO =    2.0000299  ORB. ENERGY =    0.000000
 -0.20921551D-10 -0.38994330D-10 -0.66120367D-10 -0.10006614D-09 -0.12482463D-09
 -0.10711810D-09 -0.41020542D-10 -0.25342713D-14 -0.27191068D-13 -0.10023140D-12
 -0.29307072D-12 -0.35316447D-12  0.42542403D-12 -0.19054513D-11  0.14430504D-12
  0.71543777D-13 -0.51959712D-02 -0.50383443D-02 -0.33988373D-02 -0.23726486D-12
 -0.23006710D-12 -0.15520191D-12  0.10144632D-11  0.98368810D-12  0.66359018D-12
 -0.14779584D-02 -0.17363535D-12  0.23341965D-13 -0.30792554D-03 -0.12518660D-12
  0.74889488D-13  0.14553917D-04 -0.43274655D-15  0.44859311D-14  0.63602346D-13
 -0.48787204D-13 -0.14815142D-13 -0.35432950D-05 -0.38292657D-03  0.40806764D-14
 -0.33375350D-13  0.22137923D-13  0.11237427D-13  0.26368598D-05  0.17386587D-03
 -0.26601890D-13  0.86346740D-14  0.60515182D-14 -0.14686192D-13  0.71376325D-06
  0.26622191D-04  0.18053559D-13  0.63541036D-04 -0.22459856D-13  0.12025196D-13
 -0.33076492D-03  0.36543913D-13 -0.16061735D-13  0.14014181D-03  0.30835655D-13
 -0.20013854D-13  0.18772745D-05 -0.26534120D-04 -0.38844248D-14  0.60818320D-14
  0.13769680D-03 -0.33335464D-13  0.11942950D-13 -0.58094441D-04  0.44988739D-13
 -0.30188446D-13 -0.31158484D-05 -0.12479408D-10 -0.23264130D-10 -0.39319549D-10
 -0.59104616D-10 -0.72599434D-10 -0.61271361D-10 -0.23039632D-10 -0.24458202D-14
 -0.18280990D-13 -0.68320235D-13 -0.19060282D-12 -0.25535523D-12  0.30152691D-12
 -0.90439838D-12 -0.26326099D-12  0.78010458D-14  0.36824263D-02  0.34525088D-02
  0.24583919D-02  0.17340184D-12  0.16257525D-12  0.11576326D-12  0.11415017D-12
  0.10702304D-12  0.76206782D-13  0.84088861D-03  0.22650725D-13  0.37294649D-13
  0.88317905D-04  0.46814994D-13  0.18422095D-13 -0.15946845D-04 -0.23720606D-14
 -0.60998047D-14  0.30525490D-13  0.15988897D-12 -0.19041446D-12  0.66170735D-05
 -0.10283695D-02  0.24299229D-13  0.66797804D-13 -0.51004250D-13 -0.15793555D-13
 -0.34275599D-05  0.87843779D-04 -0.25060567D-13  0.47301182D-14  0.20461706D-13
 -0.25191824D-13 -0.25304227D-06 -0.41855673D-04  0.81016600D-15 -0.85496917D-04
  0.43945881D-13 -0.58758269D-14  0.12919343D-03  0.85502455D-14  0.33910666D-14