 cl2co-wavefunction
GAUSSIAN            192 MOL ORBITALS    372 PRIMITIVES        4 NUCLEI
  O    1    (CENTRE  1)   0.00000000  0.00000000  1.29143317  CHARGE =  8.0
  C    2    (CENTRE  2)   0.00000000  0.00000000 -0.93482295  CHARGE =  6.0
  Cl   3    (CENTRE  3)   0.00000000 -2.73418805 -2.77752892  CHARGE = 17.0
  Cl   4    (CENTRE  4)   0.00000000  2.75308531 -2.77752892  CHARGE = 17.0
CENTRE ASSIGNMENTS    1  1  1  1  1  1  1  1  1  1  1  1  1  1  1  1  1  1  1  1
CENTRE ASSIGNMENTS    1  1  1  1  1  1  1  1  1  1  1  1  1  1  1  1  1  1  1  1
CENTRE ASSIGNMENTS    1  1  1  1  1  1  1  1  1  1  1  1  1  1  1  1  1  1  1  1
CENTRE ASSIGNMENTS    1  1  1  1  1  1  1  1  1  1  1  1  2  2  2  2  2  2  2  2
CENTRE ASSIGNMENTS    2  2  2  2  2  2  2  2  2  2  2  2  2  2  2  2  2  2  2  2
CENTRE ASSIGNMENTS    2  2  2  2  2  2  2  2  2  2  2  2  2  2  2  2  2  2  2  2
CENTRE ASSIGNMENTS    2  2  2  2  2  2  2  2  2  2  2  2  2  2  2  2  2  2  2  2
CENTRE ASSIGNMENTS    2  2  2  2  3  3  3  3  3  3  3  3  3  3  3  3  3  3  3  3
CENTRE ASSIGNMENTS    3  3  3  3  3  3  3  3  3  3  3  3  3  3  3  3  3  3  3  3
CENTRE ASSIGNMENTS    3  3  3  3  3  3  3  3  3  3  3  3  3  3  3  3  3  3  3  3
CENTRE ASSIGNMENTS    3  3  3  3  3  3  3  3  3  3  3  3  3  3  3  3  3  3  3  3
CENTRE ASSIGNMENTS    3  3  3  3  3  3  3  3  3  3  3  3  3  3  3  3  3  3  3  3
CENTRE ASSIGNMENTS    3  3  3  3  3  3  3  3  3  3  3  3  3  3  3  3  3  3  4  4
CENTRE ASSIGNMENTS    4  4  4  4  4  4  4  4  4  4  4  4  4  4  4  4  4  4  4  4
CENTRE ASSIGNMENTS    4  4  4  4  4  4  4  4  4  4  4  4  4  4  4  4  4  4  4  4
CENTRE ASSIGNMENTS    4  4  4  4  4  4  4  4  4  4  4  4  4  4  4  4  4  4  4  4
CENTRE ASSIGNMENTS    4  4  4  4  4  4  4  4  4  4  4  4  4  4  4  4  4  4  4  4
CENTRE ASSIGNMENTS    4  4  4  4  4  4  4  4  4  4  4  4  4  4  4  4  4  4  4  4
CENTRE ASSIGNMENTS    4  4  4  4  4  4  4  4  4  4  4  4
TYPE ASSIGNMENTS      1  1  1  1  1  1  1  1  1  1  1  1  1  1  1  1  2  2  2  3
TYPE ASSIGNMENTS      3  3  4  4  4  2  3  4  2  3  4  2  3  4  5  6  7  8  9 10
TYPE ASSIGNMENTS      5  6  7  8  9 10  5  6  7  8  9 10 11 12 13 17 14 15 18 19
TYPE ASSIGNMENTS     16 20 11 12 13 17 14 15 18 19 16 20  1  1  1  1  1  1  1  1
TYPE ASSIGNMENTS      1  1  1  1  1  1  1  1  2  2  2  3  3  3  4  4  4  2  3  4
TYPE ASSIGNMENTS      2  3  4  2  3  4  5  6  7  8  9 10  5  6  7  8  9 10  5  6
TYPE ASSIGNMENTS      7  8  9 10 11 12 13 17 14 15 18 19 16 20 11 12 13 17 14 15
TYPE ASSIGNMENTS     18 19 16 20  1  1  1  1  1  1  1  1  1  1  1  1  1  1  1  1
TYPE ASSIGNMENTS      1  1  1  1  1  1  1  1  1  1  1  1  1  1  1  2  2  2  2  2
TYPE ASSIGNMENTS      2  3  3  3  3  3  3  4  4  4  4  4  4  2  2  2  2  2  2  3
TYPE ASSIGNMENTS      3  3  3  3  3  4  4  4  4  4  4  2  3  4  2  3  4  2  3  4
TYPE ASSIGNMENTS      5  6  7  8  9 10  5  6  7  8  9 10  5  6  7  8  9 10 11 12
TYPE ASSIGNMENTS     13 17 14 15 18 19 16 20 11 12 13 17 14 15 18 19 16 20  1  1
TYPE ASSIGNMENTS      1  1  1  1  1  1  1  1  1  1  1  1  1  1  1  1  1  1  1  1
TYPE ASSIGNMENTS      1  1  1  1  1  1  1  1  1  2  2  2  2  2  2  3  3  3  3  3
TYPE ASSIGNMENTS      3  4  4  4  4  4  4  2  2  2  2  2  2  3  3  3  3  3  3  4
TYPE ASSIGNMENTS      4  4  4  4  4  2  3  4  2  3  4  2  3  4  5  6  7  8  9 10
TYPE ASSIGNMENTS      5  6  7  8  9 10  5  6  7  8  9 10 11 12 13 17 14 15 18 19
TYPE ASSIGNMENTS     16 20 11 12 13 17 14 15 18 19 16 20
EXPONENTS  0.1533000D+05 0.2299000D+04 0.5224000D+03 0.1473000D+03 0.4755000D+02
EXPONENTS  0.1676000D+02 0.6207000D+01 0.5224000D+03 0.1473000D+03 0.4755000D+02
EXPONENTS  0.1676000D+02 0.6207000D+01 0.6882000D+00 0.1752000D+01 0.2384000D+00
EXPONENTS  0.7376000D-01 0.3446000D+02 0.7749000D+01 0.2280000D+01 0.3446000D+02
EXPONENTS  0.7749000D+01 0.2280000D+01 0.3446000D+02 0.7749000D+01 0.2280000D+01
EXPONENTS  0.7156000D+00 0.7156000D+00 0.7156000D+00 0.2140000D+00 0.2140000D+00
EXPONENTS  0.2140000D+00 0.5974000D-01 0.5974000D-01 0.5974000D-01 0.2314000D+01
EXPONENTS  0.2314000D+01 0.2314000D+01 0.2314000D+01 0.2314000D+01 0.2314000D+01
EXPONENTS  0.6450000D+00 0.6450000D+00 0.6450000D+00 0.6450000D+00 0.6450000D+00
EXPONENTS  0.6450000D+00 0.2140000D+00 0.2140000D+00 0.2140000D+00 0.2140000D+00
EXPONENTS  0.2140000D+00 0.2140000D+00 0.1428000D+01 0.1428000D+01 0.1428000D+01
EXPONENTS  0.1428000D+01 0.1428000D+01 0.1428000D+01 0.1428000D+01 0.1428000D+01
EXPONENTS  0.1428000D+01 0.1428000D+01 0.5000000D+00 0.5000000D+00 0.5000000D+00
EXPONENTS  0.5000000D+00 0.5000000D+00 0.5000000D+00 0.5000000D+00 0.5000000D+00
EXPONENTS  0.5000000D+00 0.5000000D+00 0.8236000D+04 0.1235000D+04 0.2808000D+03
EXPONENTS  0.7927000D+02 0.2559000D+02 0.8997000D+01 0.3319000D+01 0.2808000D+03
EXPONENTS  0.7927000D+02 0.2559000D+02 0.8997000D+01 0.3319000D+01 0.3643000D+00
EXPONENTS  0.9059000D+00 0.1285000D+00 0.4402000D-01 0.1871000D+02 0.4133000D+01
EXPONENTS  0.1200000D+01 0.1871000D+02 0.4133000D+01 0.1200000D+01 0.1871000D+02
EXPONENTS  0.4133000D+01 0.1200000D+01 0.3827000D+00 0.3827000D+00 0.3827000D+00
EXPONENTS  0.1209000D+00 0.1209000D+00 0.1209000D+00 0.3569000D-01 0.3569000D-01
EXPONENTS  0.3569000D-01 0.1097000D+01 0.1097000D+01 0.1097000D+01 0.1097000D+01
EXPONENTS  0.1097000D+01 0.1097000D+01 0.3180000D+00 0.3180000D+00 0.3180000D+00
EXPONENTS  0.3180000D+00 0.3180000D+00 0.3180000D+00 0.1000000D+00 0.1000000D+00
EXPONENTS  0.1000000D+00 0.1000000D+00 0.1000000D+00 0.1000000D+00 0.7610000D+00
EXPONENTS  0.7610000D+00 0.7610000D+00 0.7610000D+00 0.7610000D+00 0.7610000D+00
EXPONENTS  0.7610000D+00 0.7610000D+00 0.7610000D+00 0.7610000D+00 0.2680000D+00
EXPONENTS  0.2680000D+00 0.2680000D+00 0.2680000D+00 0.2680000D+00 0.2680000D+00
EXPONENTS  0.2680000D+00 0.2680000D+00 0.2680000D+00 0.2680000D+00 0.4561000D+06
EXPONENTS  0.6833000D+05 0.1555000D+05 0.4405000D+04 0.1439000D+04 0.5204000D+03
EXPONENTS  0.2031000D+03 0.8396000D+02 0.3620000D+02 0.1583000D+02 0.6334000D+01
EXPONENTS  0.4405000D+04 0.1439000D+04 0.5204000D+03 0.2031000D+03 0.8396000D+02
EXPONENTS  0.3620000D+02 0.1583000D+02 0.6334000D+01 0.2694000D+01 0.1439000D+04
EXPONENTS  0.2031000D+03 0.8396000D+02 0.3620000D+02 0.1583000D+02 0.6334000D+01
EXPONENTS  0.2694000D+01 0.4313000D+00 0.9768000D+00 0.1625000D+00 0.5910000D-01
EXPONENTS  0.6633000D+03 0.1568000D+03 0.4998000D+02 0.1842000D+02 0.7240000D+01
EXPONENTS  0.2922000D+01 0.6633000D+03 0.1568000D+03 0.4998000D+02 0.1842000D+02
EXPONENTS  0.7240000D+01 0.2922000D+01 0.6633000D+03 0.1568000D+03 0.4998000D+02
EXPONENTS  0.1842000D+02 0.7240000D+01 0.2922000D+01 0.1568000D+03 0.4998000D+02
EXPONENTS  0.1842000D+02 0.7240000D+01 0.2922000D+01 0.3818000D+00 0.1568000D+03
EXPONENTS  0.4998000D+02 0.1842000D+02 0.7240000D+01 0.2922000D+01 0.3818000D+00
EXPONENTS  0.1568000D+03 0.4998000D+02 0.1842000D+02 0.7240000D+01 0.2922000D+01
EXPONENTS  0.3818000D+00 0.1022000D+01 0.1022000D+01 0.1022000D+01 0.1301000D+00
EXPONENTS  0.1301000D+00 0.1301000D+00 0.4190000D-01 0.4190000D-01 0.4190000D-01
EXPONENTS  0.1046000D+01 0.1046000D+01 0.1046000D+01 0.1046000D+01 0.1046000D+01
EXPONENTS  0.1046000D+01 0.3440000D+00 0.3440000D+00 0.3440000D+00 0.3440000D+00
EXPONENTS  0.3440000D+00 0.3440000D+00 0.1350000D+00 0.1350000D+00 0.1350000D+00
EXPONENTS  0.1350000D+00 0.1350000D+00 0.1350000D+00 0.7060000D+00 0.7060000D+00
EXPONENTS  0.7060000D+00 0.7060000D+00 0.7060000D+00 0.7060000D+00 0.7060000D+00
EXPONENTS  0.7060000D+00 0.7060000D+00 0.7060000D+00 0.3120000D+00 0.3120000D+00
EXPONENTS  0.3120000D+00 0.3120000D+00 0.3120000D+00 0.3120000D+00 0.3120000D+00
EXPONENTS  0.3120000D+00 0.3120000D+00 0.3120000D+00 0.4561000D+06 0.6833000D+05
EXPONENTS  0.1555000D+05 0.4405000D+04 0.1439000D+04 0.5204000D+03 0.2031000D+03
EXPONENTS  0.8396000D+02 0.3620000D+02 0.1583000D+02 0.6334000D+01 0.4405000D+04
EXPONENTS  0.1439000D+04 0.5204000D+03 0.2031000D+03 0.8396000D+02 0.3620000D+02
EXPONENTS  0.1583000D+02 0.6334000D+01 0.2694000D+01 0.1439000D+04 0.2031000D+03
EXPONENTS  0.8396000D+02 0.3620000D+02 0.1583000D+02 0.6334000D+01 0.2694000D+01
EXPONENTS  0.4313000D+00 0.9768000D+00 0.1625000D+00 0.5910000D-01 0.6633000D+03
EXPONENTS  0.1568000D+03 0.4998000D+02 0.1842000D+02 0.7240000D+01 0.2922000D+01
EXPONENTS  0.6633000D+03 0.1568000D+03 0.4998000D+02 0.1842000D+02 0.7240000D+01
EXPONENTS  0.2922000D+01 0.6633000D+03 0.1568000D+03 0.4998000D+02 0.1842000D+02
EXPONENTS  0.7240000D+01 0.2922000D+01 0.1568000D+03 0.4998000D+02 0.1842000D+02
EXPONENTS  0.7240000D+01 0.2922000D+01 0.3818000D+00 0.1568000D+03 0.4998000D+02
EXPONENTS  0.1842000D+02 0.7240000D+01 0.2922000D+01 0.3818000D+00 0.1568000D+03
EXPONENTS  0.4998000D+02 0.1842000D+02 0.7240000D+01 0.2922000D+01 0.3818000D+00
EXPONENTS  0.1022000D+01 0.1022000D+01 0.1022000D+01 0.1301000D+00 0.1301000D+00
EXPONENTS  0.1301000D+00 0.4190000D-01 0.4190000D-01 0.4190000D-01 0.1046000D+01
EXPONENTS  0.1046000D+01 0.1046000D+01 0.1046000D+01 0.1046000D+01 0.1046000D+01
EXPONENTS  0.3440000D+00 0.3440000D+00 0.3440000D+00 0.3440000D+00 0.3440000D+00
EXPONENTS  0.3440000D+00 0.1350000D+00 0.1350000D+00 0.1350000D+00 0.1350000D+00
EXPONENTS  0.1350000D+00 0.1350000D+00 0.7060000D+00 0.7060000D+00 0.7060000D+00
EXPONENTS  0.7060000D+00 0.7060000D+00 0.7060000D+00 0.7060000D+00 0.7060000D+00
EXPONENTS  0.7060000D+00 0.7060000D+00 0.3120000D+00 0.3120000D+00 0.3120000D+00
EXPONENTS  0.3120000D+00 0.3120000D+00 0.3120000D+00 0.3120000D+00 0.3120000D+00
EXPONENTS  0.3120000D+00 0.3120000D+00
MO    1     MO 0.0        OCC NO =    2.0000387  ORB. ENERGY =    0.000000
 -0.31952209D-03 -0.59553664D-03 -0.10098161D-02 -0.15282492D-02 -0.19063704D-02
 -0.16359495D-02 -0.62648173D-03 -0.58260543D-07 -0.62509739D-06 -0.23042267D-05
 -0.67374237D-05 -0.81189231D-05  0.97801033D-05 -0.30294085D-04 -0.35846727D-05
 -0.13827355D-04 -0.30099747D-13 -0.29186630D-13 -0.19689128D-13 -0.89184480D-03
 -0.86478946D-03 -0.58338186D-03 -0.83535707D-04 -0.81001536D-04 -0.54643158D-04
 -0.84291224D-14 -0.94542299D-03 -0.37252012D-04 -0.79059307D-14 -0.76040358D-03
 -0.30671196D-04 -0.16485891D-15 -0.20144675D-04 -0.56280002D-06 -0.74100192D-05
  0.11288668D-04 -0.38786492D-05  0.27564540D-14 -0.79349932D-14 -0.20754816D-03
  0.41752394D-05 -0.13672949D-04  0.94977096D-05  0.10416837D-14  0.74652320D-14
 -0.63654697D-04 -0.35357136D-05 -0.11412195D-05  0.46769331D-05 -0.31728565D-14
  0.27021947D-14  0.11244510D-03 -0.11267808D-14 -0.14649190D-03 -0.24168369D-05
 -0.32731740D-15  0.22232748D-03  0.61084387D-06  0.37076597D-14  0.21714821D-03
  0.66396668D-05 -0.88151810D-14  0.10170816D-14 -0.96952293D-05 -0.13366046D-05
  0.14473943D-14 -0.19939849D-03 -0.20862563D-05 -0.44986392D-14  0.22848418D-03
  0.60960701D-05  0.41532506D-14  0.19854796D-03  0.37013339D-03  0.62557586D-03
  0.94035719D-03  0.11550604D-02  0.97483021D-03  0.36656162D-03  0.22339892D-06
  0.16697685D-05  0.62403062D-05  0.17409483D-04  0.23323907D-04 -0.27541185D-04
  0.57507772D-05 -0.74937767D-06 -0.48549751D-05 -0.54664069D-14 -0.51251039D-14
 -0.36493793D-14  0.11170218D-02  0.10472789D-02  0.74572499D-03 -0.63533965D-04
 -0.59567130D-04 -0.42415345D-04  0.81697179D-14  0.14980349D-03 -0.50416316D-04
  0.21200035D-14  0.70338632D-04  0.12951405D-04 -0.18501573D-15 -0.86425189D-05
  0.10297671D-05  0.39280251D-05 -0.42705826D-04  0.38777801D-04  0.40607072D-13
 -0.64122193D-15  0.17897112D-03 -0.43374112D-05  0.16410632D-04 -0.12073221D-04
 -0.33175972D-14  0.52399857D-14  0.83360905D-04  0.81745488D-07 -0.57198646D-05
  0.56381191D-05  0.15536745D-14  0.52675507D-15  0.55487729D-04 -0.13788892D-14
  0.25362086D-03 -0.87807998D-05  0.41438798D-15  0.35283853D-04  0.12112856D-04
  0.37222796D-14 -0.79614644D-03  0.14229543D-04 -0.46210425D-14 -0.20990167D-15
 -0.25741597D-03  0.45967314D-05 -0.46239294D-15  0.27170532D-04 -0.54435067D-05
  0.10920980D-14  0.74507738D-03 -0.83466875D-05  0.88504943D-14 -0.16620606D-03
 -0.31095380D-03 -0.53725919D-03 -0.87096028D-03 -0.13226368D-02 -0.18383407D-02
 -0.21856462D-02 -0.19470496D-02 -0.96694599D-03 -0.15567012D-03 -0.16424118D-05
 -0.10721544D-05 -0.35765274D-04 -0.12463482D-03 -0.44883017D-03 -0.98939026D-03
 -0.13927422D-02  0.66438340D-04  0.18226450D-02  0.10777186D-02  0.27572322D-06
  0.33396815D-05  0.69645537D-05  0.19973128D-04  0.10371767D-05 -0.86133813D-04
 -0.22255323D-03  0.18132590D-03  0.57547858D-04 -0.98140251D-04 -0.49733432D-04
  0.23032783D-09  0.30339563D-09  0.33469287D-09  0.27798864D-09  0.14761968D-09
  0.38086649D-10 -0.48450036D+01 -0.63820032D+01 -0.70403485D+01 -0.58475607D+01
 -0.31052170D+01 -0.80116221D+00  0.71312956D+01  0.93935845D+01  0.10362594D+02
  0.86069458D+01  0.45705271D+01  0.11792199D+01 -0.10081263D-13  0.97459162D-13
  0.13742759D-12  0.19655781D-12 -0.99534108D-15 -0.18026205D-12  0.24472040D-03
 -0.23657994D-02 -0.33360241D-02 -0.47713970D-02  0.24161683D-04  0.43758210D-02
 -0.35138209D-03  0.33969360D-02  0.47900344D-02  0.68510163D-02 -0.34692582D-04
 -0.62830281D-02  0.14960045D-11 -0.31095945D-01  0.46013415D-01 -0.13546786D-13
  0.34734942D-03 -0.56860160D-03 -0.32717847D-15  0.11333897D-04 -0.17472519D-04
 -0.17357091D-04 -0.76355752D-03  0.78091461D-03  0.29560551D-13  0.14280829D-13
  0.70767826D-03  0.59108391D-04  0.44483578D-03 -0.50394417D-03 -0.13601673D-13
 -0.84668944D-14 -0.38114500D-03  0.50083227D-05 -0.40876256D-05 -0.92069708D-06
  0.51633386D-15  0.61063704D-15 -0.44105050D-05  0.71489707D-15 -0.98717620D-05
 -0.31079596D-05  0.87383823D-17  0.12925307D-04  0.37629224D-04 -0.21534296D-14
  0.16689979D-04 -0.28305345D-04 -0.76592897D-15  0.66471008D-15  0.77127924D-04
 -0.40835662D-04 -0.27827211D-14  0.11715618D-04  0.53475031D-04  0.78859089D-15
 -0.24309939D-03  0.69031954D-04 -0.50237372D-14  0.41886723D-03  0.78365589D-03
  0.13539836D-02  0.21949664D-02  0.33332671D-02  0.46329277D-02  0.55081961D-02
  0.49068924D-02  0.24368666D-02  0.39231490D-03  0.41391539D-05  0.22828628D-05
  0.76152482D-04  0.26537615D-03  0.95566249D-03  0.21066390D-02  0.29654679D-02
 -0.14146248D-03 -0.38808297D-02 -0.22947103D-02 -0.26777458D-06 -0.32434041D-05
 -0.67637773D-05 -0.19397336D-04 -0.10072766D-05  0.83650718D-04  0.21613739D-03
 -0.17609857D-03 -0.11596608D-03  0.11580835D-03  0.66498832D-04 -0.26462848D-09
 -0.34857761D-09 -0.38453567D-09 -0.31938698D-09 -0.16960335D-09 -0.43758551D-10
 -0.44225556D+01 -0.58255403D+01 -0.64264828D+01 -0.53376972D+01 -0.28344653D+01
 -0.73130687D+00 -0.64227153D+01 -0.84602185D+01 -0.93329453D+01 -0.77517419D+01
 -0.41163900D+01 -0.10620501D+01  0.11638853D-13 -0.11251694D-12 -0.15866063D-12
 -0.22692668D-12  0.11491247D-14  0.20811316D-12  0.22614660D-03 -0.21862398D-02
 -0.30828263D-02 -0.44092572D-02  0.22327858D-04  0.40437047D-02  0.31685136D-03
 -0.30631151D-02 -0.43193120D-02 -0.61777588D-02  0.31283301D-04  0.56655875D-02
 -0.17235707D-11 -0.28380411D-01 -0.41419885D-01  0.15005811D-13  0.32929715D-03
  0.54377520D-03  0.67529473D-15  0.10212275D-04  0.16943091D-04  0.14802681D-04
  0.71619978D-03 -0.73100246D-03  0.25563128D-13 -0.16088285D-13  0.67089178D-03
 -0.57290326D-04 -0.41152548D-03  0.46881581D-03 -0.14120515D-13  0.10096976D-13
 -0.33280608D-03 -0.47313057D-05  0.41400855D-06  0.43172972D-05  0.27929739D-15
 -0.82421572D-15 -0.57576320D-05 -0.39557983D-15 -0.13834006D-04  0.18399880D-05
 -0.99500437D-15  0.17391366D-04 -0.36588243D-04  0.21817438D-14  0.24110651D-04
  0.31068278D-04 -0.39268651D-15 -0.60548987D-15  0.71983082D-04  0.41388992D-04
  0.26920424D-14  0.12521337D-04 -0.48802995D-04 -0.87557280D-15 -0.22847058D-03
 -0.75363982D-04 -0.46586235D-14
MO    2     MO 0.0        OCC NO =    2.0000377  ORB. ENERGY =    0.000000
  0.54924629D-02  0.10237048D-01  0.17358353D-01  0.26270021D-01  0.32769781D-01
  0.28121347D-01  0.10768982D-01  0.88599851D-06  0.95061826D-05  0.35041579D-04
  0.10245952D-03  0.12346871D-03 -0.14873114D-03  0.53900667D-03  0.20580391D-03
  0.29979522D-03 -0.54439788D-12 -0.52788282D-12 -0.35610663D-12 -0.12540881D-04
 -0.12160436D-04 -0.82033585D-05  0.15837299D-02  0.15356852D-02  0.10359642D-02
 -0.15378975D-12 -0.39869053D-04  0.57558464D-03 -0.32112608D-13 -0.34539950D-04
  0.48891035D-03  0.17135525D-14 -0.10614080D-05  0.10477846D-04  0.13085933D-03
 -0.21688614D-03  0.86026810D-04 -0.27168751D-13 -0.54842820D-13 -0.12233521D-04
 -0.77173853D-04  0.24518869D-03 -0.16801483D-03 -0.89259114D-14  0.20633837D-13
  0.17013839D-05  0.57251176D-04  0.22014692D-04 -0.79265868D-04  0.35766267D-13
  0.23777433D-14  0.46404886D-05  0.89794033D-14 -0.60451199D-05  0.29795850D-04
 -0.41507801D-13  0.14238938D-04 -0.34183104D-04  0.14569591D-13  0.38964220D-05
 -0.55204445D-04  0.19243194D-12 -0.32870916D-14 -0.10201332D-06  0.35308623D-04
  0.15869487D-13 -0.99893714D-05  0.31555958D-04 -0.60082121D-14  0.10295411D-04
 -0.13748183D-03 -0.57470656D-13 -0.38690376D-02 -0.72126656D-02 -0.12190387D-01
 -0.18324426D-01 -0.22508275D-01 -0.18996190D-01 -0.71430636D-02 -0.41325980D-05
 -0.30888610D-04 -0.11543779D-03 -0.32205345D-03 -0.43146283D-03  0.50947715D-03
 -0.10434340D-03 -0.66463525D-05  0.86059125D-04  0.39606424D-12  0.37133540D-12
  0.26441292D-12  0.28743921D-04  0.26949253D-04  0.19189474D-04  0.96846615D-03
  0.90799857D-03  0.64654908D-03  0.89360544D-13  0.10704205D-04  0.81222725D-03
  0.71175254D-14  0.21727079D-07 -0.20138516D-03 -0.17205907D-14 -0.50348197D-06
 -0.22004817D-04 -0.66539621D-04  0.67536699D-03 -0.60882737D-03 -0.25297110D-12
 -0.11250970D-12  0.12495059D-04  0.80949171D-04 -0.15903619D-03  0.78087015D-04
  0.57148294D-14  0.11620878D-13  0.54519644D-05 -0.19850739D-06  0.11527337D-03
 -0.11507486D-03 -0.16533641D-13 -0.42561967D-14  0.35705858D-05 -0.98304370D-14
  0.10786957D-04  0.13290189D-03  0.16025314D-13  0.86759167D-06 -0.16921306D-03
  0.13465997D-13 -0.33228464D-04 -0.22949262D-03  0.73521906D-13  0.37010249D-14
 -0.12045534D-04 -0.66327834D-04 -0.13004175D-13  0.16892616D-05  0.92694857D-04
  0.19011002D-14  0.34447340D-04  0.10628865D-03 -0.76623204D-13 -0.15867771D-02
 -0.29686907D-02 -0.51292390D-02 -0.83150990D-02 -0.12627276D-01 -0.17550725D-01
 -0.20866468D-01 -0.18588574D-01 -0.92314791D-02 -0.14861900D-02 -0.15680183D-04
 -0.77488562D-05 -0.25848887D-03 -0.90078197D-03 -0.32438617D-02 -0.71506895D-02
 -0.10065863D-01  0.48017447D-03  0.13172930D-01  0.77890708D-02  0.88338251D-07
  0.10699919D-05  0.22313554D-05  0.63991388D-05  0.33229837D-06 -0.27596190D-04
 -0.71303255D-04  0.58094536D-04  0.35926445D-03 -0.20152594D-03 -0.17217856D-03
 -0.26378851D-08 -0.34747118D-08 -0.38331511D-08 -0.31837321D-08 -0.16906501D-08
 -0.43619656D-09  0.38510445D+01  0.50727265D+01  0.55960113D+01  0.46479256D+01
  0.24681775D+01  0.63680268D+00 -0.67762359D+01 -0.89258879D+01 -0.98466515D+01
 -0.81784151D+01 -0.43429653D+01 -0.11205078D+01  0.11127494D-12 -0.10757345D-11
 -0.15168979D-11 -0.21695653D-11  0.10986373D-13  0.19896960D-11 -0.16333746D-03
  0.15790415D-02  0.22266133D-02  0.31846461D-02 -0.16126599D-04 -0.29206208D-02
  0.31580782D-03 -0.30530269D-02 -0.43050866D-02 -0.61574126D-02  0.31180271D-04
  0.56469281D-02 -0.17319131D-10  0.24767956D-01 -0.43874739D-01  0.12935517D-12
 -0.15097554D-03  0.19097013D-03  0.55119262D-14 -0.11171016D-04  0.62401770D-05
  0.21051022D-04  0.39289933D-03 -0.41395035D-03 -0.24365504D-12 -0.15913491D-12
 -0.36673111D-03  0.66485363D-05 -0.25010526D-03  0.24345672D-03  0.14695751D-12
  0.97127199D-13  0.42666777D-03 -0.32141442D-06  0.37734046D-04 -0.37412632D-04
 -0.57062866D-14 -0.78189997D-14 -0.17616811D-04 -0.46437176D-14 -0.31027029D-04
  0.99009146D-05 -0.49228627D-14  0.48601530D-04  0.82942457D-05  0.18854015D-13
  0.44479558D-04 -0.37996989D-04 -0.56112605D-14 -0.71926137D-14 -0.44332273D-04
 -0.15100764D-04  0.25874828D-13  0.14926606D-04 -0.37736545D-04 -0.42969874D-14
  0.11807021D-03  0.83038838D-04  0.45652031D-13 -0.14127232D-02 -0.26430543D-02
 -0.45666116D-02 -0.74030139D-02 -0.11242187D-01 -0.15625582D-01 -0.18577620D-01
 -0.16549589D-01 -0.82188760D-02 -0.13231695D-02 -0.13960220D-04 -0.69071884D-05
 -0.23041224D-03 -0.80294053D-03 -0.28915189D-02 -0.63739935D-02 -0.89725257D-02
  0.42801872D-03  0.11742108D-01  0.69430349D-02  0.79914929D-07  0.96796494D-06
  0.20185888D-05  0.57889613D-05  0.30061270D-06 -0.24964809D-04 -0.64504272D-04
  0.52555044D-04  0.30960725D-03 -0.18456965D-03 -0.16434052D-03  0.92046473D-09
  0.12124674D-08  0.13375413D-08  0.11109328D-08  0.58993614D-09  0.15220661D-09
 -0.43038136D+01 -0.56691293D+01 -0.62539370D+01 -0.51943844D+01 -0.27583622D+01
 -0.71167188D+00 -0.74662847D+01 -0.98348436D+01 -0.10849372D+02 -0.90112529D+01
 -0.47852253D+01 -0.12346131D+01 -0.43740987D-13  0.42285972D-12  0.59627634D-12
  0.85283290D-12 -0.43186258D-14 -0.78212821D-12  0.18568860D-03 -0.17951179D-02
 -0.25313036D-02 -0.36204337D-02  0.18333367D-04  0.33202792D-02  0.34890713D-03
 -0.33730097D-02 -0.47562957D-02 -0.68027611D-02  0.34448225D-04  0.62387736D-02
  0.59513449D-11 -0.27677204D-01 -0.48321061D-01 -0.49481872D-13  0.18484024D-03
  0.24827743D-03 -0.94363649D-15  0.12334188D-04  0.82692879D-05  0.22440102D-04
  0.46237765D-03 -0.48481775D-03 -0.14643037D-12  0.62723257D-13  0.44090668D-03
  0.14893376D-05 -0.28727640D-03  0.28578706D-03  0.55615429D-13 -0.39213061D-13
 -0.45834538D-03 -0.61461810D-06  0.37815879D-04 -0.37201261D-04 -0.46760508D-14
  0.92477129D-14  0.18119911D-04  0.61792681D-14  0.29427448D-04  0.10017869D-04
  0.11474470D-13 -0.46526173D-04  0.46215360D-05 -0.30012274D-13 -0.41756172D-04
 -0.34675142D-04  0.31471560D-14 -0.15880447D-15  0.50822975D-04 -0.11453095D-04
 -0.12500849D-13 -0.13929043D-04 -0.41962524D-04  0.12977262D-13 -0.13853988D-03
  0.76321807D-04  0.14947984D-13
MO    3     MO 0.0        OCC NO =    2.0000334  ORB. ENERGY =    0.000000
  0.30450041D-11  0.56753870D-11  0.96234163D-11  0.14564017D-10  0.18167464D-10
  0.15590387D-10  0.59702898D-11  0.42078609D-15  0.45147586D-14  0.16642250D-13
  0.48660964D-13  0.58638827D-13 -0.70636682D-13  0.29223687D-12  0.16007206D-12
  0.96502962D-13  0.36357432D-04  0.35254479D-04  0.23782463D-04  0.22308740D-12
  0.21631973D-12  0.14592801D-12  0.62382908D-12  0.60490436D-12  0.40806491D-12
  0.10621438D-04  0.88270246D-13  0.17799553D-12  0.42625033D-05  0.44001524D-13
  0.81297646D-13  0.18898586D-06  0.81826443D-14  0.37237582D-14  0.41603270D-13
 -0.64047779D-13  0.22444509D-13  0.11380085D-03  0.68277511D-05  0.66375076D-13
 -0.21643751D-13  0.63365018D-13 -0.41721268D-13  0.33715640D-04 -0.34563639D-05
 -0.18075491D-13  0.10209942D-13  0.10468084D-13 -0.20678026D-13 -0.15780424D-03
 -0.14548387D-05 -0.11200053D-14  0.51328361D-06  0.77470556D-14 -0.10401410D-13
  0.24609511D-05 -0.73748612D-14  0.74880841D-14 -0.40008019D-05 -0.15866306D-13
  0.23716145D-13 -0.77645395D-03 -0.31167933D-06 -0.15787825D-14  0.18669249D-13
 -0.13434834D-05  0.74447487D-14  0.72016873D-14  0.22785214D-05 -0.27084013D-14
 -0.63209436D-13  0.24213133D-03 -0.62445478D-12 -0.11641095D-11 -0.19675037D-11
 -0.29575250D-11 -0.36327897D-11 -0.30659464D-11 -0.11528759D-11 -0.17627508D-14
 -0.13175470D-13 -0.49239741D-13 -0.13737121D-12 -0.18403955D-12  0.21731639D-12
  0.15552915D-12 -0.41045624D-12 -0.24802004D-13 -0.45612524D-04 -0.42764640D-04
 -0.30450972D-04 -0.16914491D-12 -0.15858410D-12 -0.11292133D-12 -0.17362170D-12
 -0.16278138D-12 -0.11591004D-12 -0.81693928D-05  0.10680406D-13  0.17232925D-12
 -0.47836324D-06  0.63812299D-13  0.17065991D-13 -0.61950079D-07 -0.32157634D-14
 -0.51927189D-14 -0.25331422D-13  0.14512986D-12 -0.11979844D-12  0.11941989D-02
  0.11571788D-04 -0.18573152D-13  0.93947523D-13 -0.93322838D-13 -0.62468490D-15
 -0.40967662D-04 -0.63089239D-05 -0.81981176D-13  0.76168322D-14  0.20891945D-13
 -0.28508777D-13  0.72249918D-04 -0.86052919D-07 -0.21810543D-13  0.15692208D-05
 -0.49039175D-14  0.14819325D-13 -0.91581317D-06  0.19811212D-14 -0.23254249D-13
 -0.37918494D-05  0.12730631D-13 -0.21203725D-13 -0.34661822D-03 -0.54466399D-06
  0.89487299D-14 -0.17422772D-13  0.99175174D-06 -0.10651355D-13  0.14290504D-13
  0.64224023D-06 -0.16194835D-13  0.37977812D-13  0.35075337D-03 -0.82184443D-10
 -0.15375832D-09 -0.26566028D-09 -0.43066653D-09 -0.65400844D-09 -0.90901021D-09
 -0.10807435D-08 -0.96276385D-09 -0.47812889D-09 -0.76974705D-10 -0.81212861D-12
 -0.15921573D-12 -0.53111701D-11 -0.18508365D-10 -0.66651618D-10 -0.14692520D-09
 -0.20682326D-09  0.98661434D-11  0.27066415D-09  0.16004202D-09 -0.38156348D-14
 -0.46216656D-13 -0.96379963D-13 -0.27640095D-12 -0.14353117D-13  0.11919750D-11
  0.30798344D-11 -0.25093041D-11  0.10085466D-10  0.49219074D-14 -0.17710472D-13
  0.82344570D+01  0.10846706D+02  0.11965615D+02  0.99383800D+01  0.52775556D+01
  0.13616369D+01 -0.37562926D-09 -0.49479161D-09 -0.54583259D-09 -0.45335671D-09
 -0.24074499D-09 -0.62113466D-10 -0.25203737D-08 -0.33199217D-08 -0.36623933D-08
 -0.30419044D-08 -0.16153357D-08 -0.41676504D-09 -0.35951350D-03  0.34755452D-02
  0.49008815D-02  0.70095570D-02 -0.35495410D-04 -0.64284249D-02  0.78423323D-14
 -0.75814623D-13 -0.10690653D-12 -0.15290462D-12  0.77428748D-15  0.14022796D-12
  0.11123591D-12 -0.10753572D-11 -0.15163659D-11 -0.21688044D-11  0.10982520D-13
  0.19889982D-11  0.53817451D-01 -0.33797265D-11 -0.16887351D-10 -0.42441790D-03
  0.73510198D-13  0.13027656D-12 -0.15134205D-04 -0.36986465D-15  0.31639820D-14
  0.23366789D-15  0.13800739D-12 -0.13824105D-12  0.90736978D-03  0.51087576D-03
 -0.57461835D-14 -0.50294313D-13 -0.19457094D-13  0.69751407D-13 -0.47271096D-03
 -0.31794562D-03  0.22075243D-12 -0.39113769D-14  0.13648351D-13 -0.97369740D-14
  0.21592552D-04  0.36835831D-04  0.11163143D-13  0.22906203D-04 -0.53545950D-15
  0.51446190D-14  0.40745536D-04 -0.99503013D-14 -0.54086044D-14 -0.10946414D-03
  0.11556680D-13 -0.10025253D-13  0.93343136D-05  0.17665932D-04 -0.10551786D-13
 -0.74872444D-14 -0.90713611D-04 -0.10010821D-13 -0.20819328D-13  0.37715817D-04
  0.41666180D-13  0.43281061D-13 -0.14716202D-03  0.37186763D-10  0.69572465D-10
  0.12020579D-09  0.19486771D-09  0.29592531D-09  0.41130834D-09  0.48901410D-09
  0.43563075D-09  0.21634344D-09  0.34829464D-10  0.36747142D-12  0.62752445D-13
  0.20933165D-11  0.72947889D-11  0.26269716D-10  0.57908320D-10  0.81516225D-10
 -0.38885896D-11 -0.10667814D-09 -0.63078114D-10  0.12043684D-14  0.14587843D-13
  0.30421408D-13  0.87243303D-13  0.45304232D-14 -0.37623543D-12 -0.97212010D-12
  0.79203770D-12 -0.41441546D-11  0.12393144D-12  0.63152911D-14 -0.81939633D+01
 -0.10793367D+02 -0.11906773D+02 -0.98895071D+01 -0.52516027D+01 -0.13549409D+01
 -0.58546559D-09 -0.77119514D-09 -0.85074896D-09 -0.70661363D-09 -0.37523144D-09
 -0.96811674D-10 -0.14705204D-08 -0.19370194D-08 -0.21368356D-08 -0.17748093D-08
 -0.94247299D-09 -0.24316296D-09  0.35735995D-03 -0.34547260D-02 -0.48715243D-02
 -0.69675685D-02  0.35282786D-04  0.63899175D-02  0.29460258D-13 -0.28480282D-12
 -0.40160171D-12 -0.57439668D-12  0.29086639D-14  0.52677593D-12  0.65807836D-13
 -0.63618782D-12 -0.89709123D-12 -0.12830778D-11  0.64973252D-14  0.11767033D-11
 -0.53531474D-01 -0.32751861D-11 -0.97847630D-11  0.42361649D-03  0.15044172D-14
  0.50608554D-13  0.15269059D-04  0.23474666D-14  0.26510258D-14  0.47304240D-13
  0.29412514D-13 -0.76716754D-13  0.90392576D-03 -0.50486657D-03  0.22937659D-12
 -0.22236316D-13 -0.15053182D-13  0.37289498D-13 -0.46365280D-03  0.30979543D-03
 -0.15732867D-12 -0.49955382D-14  0.12711266D-13 -0.77157278D-14  0.21714544D-04
 -0.36694567D-04  0.86392221D-16 -0.22048605D-04  0.27458774D-14 -0.82682381D-15
 -0.43109774D-04 -0.21105666D-14  0.87403105D-14  0.10925559D-03 -0.61270656D-14
 -0.62598390D-14  0.11670726D-04 -0.17259397D-04  0.68194235D-14 -0.46471811D-14
  0.90029620D-04  0.52388817D-14 -0.15536832D-13 -0.38251429D-04 -0.25697152D-13
  0.29478376D-13 -0.14384604D-03
MO    4     MO 0.0        OCC NO =    2.0000300  ORB. ENERGY =    0.000000
 -0.18960325D-10 -0.35338928D-10 -0.59922118D-10 -0.90685754D-10 -0.11312333D-09
 -0.97076647D-10 -0.37175198D-10 -0.22025617D-14 -0.23632042D-13 -0.87112156D-13
 -0.25471084D-12 -0.30693894D-12  0.36974048D-12 -0.17302530D-11 -0.78292245D-13
 -0.52775920D-13 -0.51914253D-02 -0.50339362D-02 -0.33958636D-02  0.90831552D-13
  0.88076051D-13  0.59415584D-13  0.31359633D-12  0.30408296D-12  0.20513257D-12
 -0.14777747D-02  0.40203417D-13 -0.71354299D-13 -0.30833606D-03  0.24422548D-13
 -0.24907922D-13  0.14471913D-04  0.24069816D-14 -0.23988346D-15  0.34746474D-13
  0.33006741D-13 -0.67753214D-13  0.15535430D-05 -0.38173199D-03  0.13219910D-13
 -0.13508075D-14 -0.35322589D-13  0.36673396D-13 -0.70591862D-06  0.17251892D-03
  0.68961804D-15 -0.78920686D-14  0.21510396D-15  0.76769647D-14  0.67214827D-07
  0.26544253D-04 -0.33697046D-14  0.63565603D-04  0.77623865D-14  0.37215393D-14
 -0.33201213D-03  0.25679841D-14 -0.42322176D-14  0.14131532D-03 -0.25855144D-13
 -0.69324002D-14  0.90445117D-06 -0.26958628D-04  0.11292525D-15 -0.68147181D-14
  0.13815117D-03  0.37524236D-14  0.49142327D-14 -0.57275290D-04 -0.40911993D-14
  0.15529922D-13  0.11757856D-05 -0.47046487D-11 -0.87704129D-11 -0.14823193D-10
 -0.22282023D-10 -0.27369475D-10 -0.23098871D-10 -0.86857787D-11 -0.10462412D-15
 -0.78200046D-15 -0.29225143D-14 -0.81533598D-14 -0.10923254D-13  0.12898326D-13
 -0.42463172D-12  0.17775925D-12  0.14334151D-13  0.36706777D-02  0.34414936D-02
  0.24505485D-02 -0.17497879D-12 -0.16405374D-12 -0.11681604D-12 -0.98962900D-13
 -0.92784009D-13 -0.66067742D-13  0.83850105D-03  0.20509030D-13 -0.12361049D-12
  0.87786413D-04  0.27303595D-13  0.14157551D-13 -0.15947844D-04 -0.38872193D-15
  0.18212916D-14  0.38449110D-13 -0.66712022D-13  0.28262912D-13 -0.45499786D-05
 -0.10250076D-02  0.10618411D-13 -0.28606711D-13  0.30483551D-13 -0.18768394D-14
  0.37472855D-05  0.87475401D-04 -0.43128735D-13 -0.19517139D-14 -0.12975786D-13
  0.14927499D-13  0.16769703D-06 -0.41655772D-04 -0.73640737D-14 -0.85011772D-04
 -0.43497095D-14 -0.78708934D-14  0.13190446D-03 -0.33185454D-14  0.24474342D-13