 Entering Gaussian System, Link 0=/home/bruns/programas/chemistry/gaussian/g09/g09
 Input=GAUSSIAN.com
 Output=GAUSSIAN.log
 Initial command:
 /home/bruns/programas/chemistry/gaussian/g09/l1.exe /home/bruns/programas/chemistry/gaussian/work/Gau-44563.inp -scrdir=/home/bruns/programas/chemistry/gaussian/work/
 Entering Link 1 = /home/bruns/programas/chemistry/gaussian/g09/l1.exe PID=     44565.
  
 Copyright (c) 1988,1990,1992,1993,1995,1998,2003,2009,2010,
            Gaussian, Inc.  All Rights Reserved.
  
 This is part of the Gaussian(R) 09 program.  It is based on
 the Gaussian(R) 03 system (copyright 2003, Gaussian, Inc.),
 the Gaussian(R) 98 system (copyright 1998, Gaussian, Inc.),
 the Gaussian(R) 94 system (copyright 1995, Gaussian, Inc.),
 the Gaussian 92(TM) system (copyright 1992, Gaussian, Inc.),
 the Gaussian 90(TM) system (copyright 1990, Gaussian, Inc.),
 the Gaussian 88(TM) system (copyright 1988, Gaussian, Inc.),
 the Gaussian 86(TM) system (copyright 1986, Carnegie Mellon
 University), and the Gaussian 82(TM) system (copyright 1983,
 Carnegie Mellon University). Gaussian is a federally registered
 trademark of Gaussian, Inc.
  
 This software contains proprietary and confidential information,
 including trade secrets, belonging to Gaussian, Inc.
  
 This software is provided under written license and may be
 used, copied, transmitted, or stored only in accord with that
 written license.
  
 The following legend is applicable only to US Government
 contracts under FAR:
  
                    RESTRICTED RIGHTS LEGEND
  
 Use, reproduction and disclosure by the US Government is
 subject to restrictions as set forth in subparagraphs (a)
 and (c) of the Commercial Computer Software - Restricted
 Rights clause in FAR 52.227-19.
  
 Gaussian, Inc.
 340 Quinnipiac St., Bldg. 40, Wallingford CT 06492
  
  
 ---------------------------------------------------------------
 Warning -- This program may not be used in any manner that
 competes with the business of Gaussian, Inc. or will provide
 assistance to any competitor of Gaussian, Inc.  The licensee
 of this program is prohibited from giving any competitor of
 Gaussian, Inc. access to this program.  By using this program,
 the user acknowledges that Gaussian, Inc. is engaged in the
 business of creating and licensing software in the field of
 computational chemistry and represents and warrants to the
 licensee that it is not a competitor of Gaussian, Inc. and that
 it will not use this program in any manner prohibited above.
 ---------------------------------------------------------------
  

 Cite this work as:
 Gaussian 09, Revision B.01,
 M. J. Frisch, G. W. Trucks, H. B. Schlegel, G. E. Scuseria, 
 M. A. Robb, J. R. Cheeseman, G. Scalmani, V. Barone, B. Mennucci, 
 G. A. Petersson, H. Nakatsuji, M. Caricato, X. Li, H. P. Hratchian, 
 A. F. Izmaylov, J. Bloino, G. Zheng, J. L. Sonnenberg, M. Hada, 
 M. Ehara, K. Toyota, R. Fukuda, J. Hasegawa, M. Ishida, T. Nakajima, 
 Y. Honda, O. Kitao, H. Nakai, T. Vreven, J. A. Montgomery, Jr., 
 J. E. Peralta, F. Ogliaro, M. Bearpark, J. J. Heyd, E. Brothers, 
 K. N. Kudin, V. N. Staroverov, T. Keith, R. Kobayashi, J. Normand, 
 K. Raghavachari, A. Rendell, J. C. Burant, S. S. Iyengar, J. Tomasi, 
 M. Cossi, N. Rega, J. M. Millam, M. Klene, J. E. Knox, J. B. Cross, 
 V. Bakken, C. Adamo, J. Jaramillo, R. Gomperts, R. E. Stratmann, 
 O. Yazyev, A. J. Austin, R. Cammi, C. Pomelli, J. W. Ochterski, 
 R. L. Martin, K. Morokuma, V. G. Zakrzewski, G. A. Voth, 
 P. Salvador, J. J. Dannenberg, S. Dapprich, A. D. Daniels, 
 O. Farkas, J. B. Foresman, J. V. Ortiz, J. Cioslowski, 
 and D. J. Fox, Gaussian, Inc., Wallingford CT, 2010.
 
 ******************************************
 Gaussian 09:  EM64L-G09RevB.01 12-Aug-2010
                27-Nov-2021 
 ******************************************
 %nproc=8
 Will use up to    8 processors via shared memory.
 %mem=8GB
 -----------------------------------------------------
 # qcisd/aug-cc-pvtz nosymm density=current output=wfn
 -----------------------------------------------------
 1/30=1,38=1/1;
 2/12=2,15=1,17=6,18=5,40=1/2;
 3/5=16,6=1,7=10,11=9,16=1,25=1,30=1,71=1/1,2,3;
 4//1;
 5/5=2,38=5/2;
 8/6=4,9=120000,10=1/1,4;
 9/5=8,15=1/13;
 11/28=-7,31=1,32=3,42=3/11;
 10/5=6,13=10,31=1/2;
 6/7=2,8=2,9=2,10=2,22=-1,31=1/1;
 99/5=1,6=1100,9=1/99;
 ------------------
 cl2co-wavefunction
 ------------------
 Symbolic Z-matrix:
 Charge =  0 Multiplicity = 1
 O                     0.        0.        0.6734 
 C                     0.        0.       -0.49469 
 Cl                    0.       -1.44687  -1.46981 
 Cl                    0.        1.44687  -1.46981 
 
                          Input orientation:                          
 ---------------------------------------------------------------------
 Center     Atomic      Atomic             Coordinates (Angstroms)
 Number     Number       Type             X           Y           Z
 ---------------------------------------------------------------------
      1          8           0        0.000000    0.000000    0.673397
      2          6           0        0.000000    0.000000   -0.494687
      3         17           0        0.000000   -1.446870   -1.469805
      4         17           0        0.000000    1.446870   -1.469805
 ---------------------------------------------------------------------
                    Distance matrix (angstroms):
                    1          2          3          4
     1  O    0.000000
     2  C    1.168084   0.000000
     3  Cl   2.585875   1.744789   0.000000
     4  Cl   2.585875   1.744789   2.893740   0.000000
 Symmetry turned off by external request.
 Stoichiometry    CCl2O
 Framework group  C2V[C2(CO),SGV(Cl2)]
 Deg. of freedom     3
 Full point group                 C2V     NOp   4
 Rotational constants (GHZ):      7.9850829      3.4518093      2.4100064
 Standard basis: Aug-CC-pVTZ (5D, 7F)
 Integral buffers will be    131072 words long.
 Raffenetti 1 integral format.
 Two-electron integral symmetry is turned off.
   192 basis functions,   372 primitive gaussians,   228 cartesian basis functions
    24 alpha electrons       24 beta electrons
       nuclear repulsion energy       192.1284399543 Hartrees.
 NAtoms=    4 NActive=    4 NUniq=    4 SFac= 1.00D+00 NAtFMM=   50 NAOKFM=F Big=F
 One-electron integrals computed using PRISM.
 NBasis=   192 RedAO= T  NBF=   192
 NBsUse=   192 1.00D-06 NBFU=   192
 Harris functional with IExCor=  205 diagonalized for initial guess.
 ExpMin= 3.57D-02 ExpMax= 4.56D+05 ExpMxC= 1.44D+03 IAcc=3 IRadAn=         0 AccDes= 0.00D+00
 HarFok:  IExCor=  205 AccDes= 0.00D+00 IRadAn=         0 IDoV= 1
 ScaDFX=  1.000000  1.000000  1.000000  1.000000
 FoFCou: FMM=F IPFlag=           0 FMFlag=      100000 FMFlg1=           0
         NFxFlg=           0 DoJE=T BraDBF=F KetDBF=T FulRan=T
         Omega=  0.000000  0.000000  1.000000  0.000000  0.000000 ICntrl=     500 IOpCl=  0
         NMat0=    1 NMatS0=    1 NMatT0=    0 NMatD0=    1 NMtDS0=    0 NMtDT0=    0
         I1Cent=           4 NGrid=           0.
 Symmetry not used in FoFCou.
 Requested convergence on RMS density matrix=1.00D-08 within 128 cycles.
 Requested convergence on MAX density matrix=1.00D-06.
 Requested convergence on             energy=1.00D-06.
 No special actions if energy rises.
 Keep R1 ints in memory in canonical form, NReq=346956363.
 SCF Done:  E(RHF) =  -1031.80359195     A.U. after   12 cycles
             Convg  =    0.4200D-08             -V/T =  2.0002
 ExpMin= 3.57D-02 ExpMax= 4.56D+05 ExpMxC= 1.44D+03 IAcc=3 IRadAn=         5 AccDes= 0.00D+00
 HarFok:  IExCor=  205 AccDes= 0.00D+00 IRadAn=         5 IDoV=-2
 ScaDFX=  1.000000  1.000000  1.000000  1.000000
 DSYEVD returned Info=          93 IAlg= 4 N=    46 NDim=    46 NE2=    21472416 trying DSYEV.
 DSYEVD returned Info=         101 IAlg= 4 N=    50 NDim=    50 NE2=    21472416 trying DSYEV.
 Range of M.O.s used for correlation:    13   192
 NBasis=   192 NAE=    24 NBE=    24 NFC=    12 NFV=     0
 NROrb=    180 NOA=    12 NOB=    12 NVA=   168 NVB=   168

 **** Warning!!: The largest alpha MO coefficient is  0.27818629D+02

 Semi-Direct transformation.
 ModeAB=           2 MOrb=            12 LenV=    1072714309
 LASXX=     33405819 LTotXX=    33405819 LenRXX=    33405819
 LTotAB=    33954012 MaxLAS=    56388960 LenRXY=    56388960
 NonZer=    66811638 LenScr=   100987392 LnRSAI=           0
 LnScr1=           0 LExtra=           0 Total=    190782171
 MaxDsk=          -1 SrtSym=           F ITran=            4
 JobTyp=0 Pass  1:  I=   1 to  12.
 (rs|ai) integrals will be sorted in core.
 Spin components of T(2) and E(2):
     alpha-alpha T2 =       0.3507340166D-01 E2=     -0.1016390881D+00
     alpha-beta  T2 =       0.1825651676D+00 E2=     -0.5748753181D+00
     beta-beta   T2 =       0.3507340166D-01 E2=     -0.1016390881D+00
 ANorm=    0.1119246162D+01
 E2 =    -0.7781534944D+00 EUMP2 =    -0.10325817454459D+04
 R2 and R3 integrals will be kept in memory, NReq=   687553722.
 Iterations=  50 Convergence= 0.100D-07
 Iteration Nr.   1
 **********************
 DD1Dir will call FoFMem   1 times, MxPair=       156
 NAB=    78 NAA=     0 NBB=     0.
 MP4(R+Q)=  0.22415087D-01
 E3=       -0.19573589D-01        EUMP3=      -0.10326013190D+04
 E4(DQ)=    0.29878833D-02        UMP4(DQ)=   -0.10325983312D+04
 E4(SDQ)=  -0.57950880D-02        UMP4(SDQ)=  -0.10326071141D+04
 DE(Corr)= -0.77531200     E(Corr)=     -1032.5789039    
 NORM(A)=   0.11209727D+01
 Iteration Nr.   2
 **********************
 DD1Dir will call FoFMem   1 times, MxPair=       156
 NAB=    78 NAA=     0 NBB=     0.
 DE(Corr)= -0.80059819     E(CORR)=     -1032.6041901     Delta=-2.53D-02
 NORM(A)=   0.11302096D+01
 Iteration Nr.   3
 **********************
 DD1Dir will call FoFMem   1 times, MxPair=       156
 NAB=    78 NAA=     0 NBB=     0.
 DE(Corr)= -0.79911265     E(CORR)=     -1032.6027046     Delta= 1.49D-03
 NORM(A)=   0.11327301D+01
 Iteration Nr.   4
 **********************
 DD1Dir will call FoFMem   1 times, MxPair=       156
 NAB=    78 NAA=     0 NBB=     0.
 DE(Corr)= -0.80147907     E(CORR)=     -1032.6050710     Delta=-2.37D-03
 NORM(A)=   0.11337019D+01
 Iteration Nr.   5
 **********************
 DD1Dir will call FoFMem   1 times, MxPair=       156
 NAB=    78 NAA=     0 NBB=     0.
 DE(Corr)= -0.80178298     E(CORR)=     -1032.6053749     Delta=-3.04D-04
 NORM(A)=   0.11340743D+01
 Iteration Nr.   6
 **********************
 DD1Dir will call FoFMem   1 times, MxPair=       156
 NAB=    78 NAA=     0 NBB=     0.
 DE(Corr)= -0.80183137     E(CORR)=     -1032.6054233     Delta=-4.84D-05
 NORM(A)=   0.11341414D+01
 Iteration Nr.   7
 **********************
 DD1Dir will call FoFMem   1 times, MxPair=       156
 NAB=    78 NAA=     0 NBB=     0.
 DE(Corr)= -0.80184005     E(CORR)=     -1032.6054320     Delta=-8.68D-06
 NORM(A)=   0.11341431D+01
 Iteration Nr.   8
 **********************
 DD1Dir will call FoFMem   1 times, MxPair=       156
 NAB=    78 NAA=     0 NBB=     0.
 DE(Corr)= -0.80183931     E(CORR)=     -1032.6054313     Delta= 7.44D-07
 NORM(A)=   0.11341509D+01
 Iteration Nr.   9
 **********************
 DD1Dir will call FoFMem   1 times, MxPair=       156
 NAB=    78 NAA=     0 NBB=     0.
 DE(Corr)= -0.80183840     E(CORR)=     -1032.6054303     Delta= 9.12D-07
 NORM(A)=   0.11341507D+01
 Iteration Nr.  10
 **********************
 DD1Dir will call FoFMem   1 times, MxPair=       156
 NAB=    78 NAA=     0 NBB=     0.
 DE(Corr)= -0.80183942     E(CORR)=     -1032.6054314     Delta=-1.03D-06
 NORM(A)=   0.11341522D+01
 Iteration Nr.  11
 **********************
 DD1Dir will call FoFMem   1 times, MxPair=       156
 NAB=    78 NAA=     0 NBB=     0.
 DE(Corr)= -0.80184029     E(CORR)=     -1032.6054322     Delta=-8.72D-07
 NORM(A)=   0.11341533D+01
 Iteration Nr.  12
 **********************
 DD1Dir will call FoFMem   1 times, MxPair=       156
 NAB=    78 NAA=     0 NBB=     0.
 DE(Corr)= -0.80184050     E(CORR)=     -1032.6054325     Delta=-2.06D-07
 NORM(A)=   0.11341540D+01
 Iteration Nr.  13
 **********************
 DD1Dir will call FoFMem   1 times, MxPair=       156
 NAB=    78 NAA=     0 NBB=     0.
 DE(Corr)= -0.80184081     E(CORR)=     -1032.6054328     Delta=-3.12D-07
 NORM(A)=   0.11341544D+01
 Iteration Nr.  14
 **********************
 DD1Dir will call FoFMem   1 times, MxPair=       156
 NAB=    78 NAA=     0 NBB=     0.
 DE(Corr)= -0.80184087     E(CORR)=     -1032.6054328     Delta=-6.04D-08
 NORM(A)=   0.11341545D+01
 Iteration Nr.  15
 **********************
 DD1Dir will call FoFMem   1 times, MxPair=       156
 NAB=    78 NAA=     0 NBB=     0.
 DE(Corr)= -0.80184092     E(CORR)=     -1032.6054329     Delta=-4.27D-08
 NORM(A)=   0.11341546D+01
 Iteration Nr.  16
 **********************
 DD1Dir will call FoFMem   1 times, MxPair=       156
 NAB=    78 NAA=     0 NBB=     0.
 DE(Corr)= -0.80184093     E(CORR)=     -1032.6054329     Delta=-1.64D-08
 NORM(A)=   0.11341546D+01
 Iteration Nr.  17
 **********************
 DD1Dir will call FoFMem   1 times, MxPair=       156
 NAB=    78 NAA=     0 NBB=     0.
 DE(Corr)= -0.80184093     E(CORR)=     -1032.6054329     Delta= 2.25D-09
 NORM(A)=   0.11341546D+01
 Iteration Nr.  18
 **********************
 DD1Dir will call FoFMem   1 times, MxPair=       156
 NAB=    78 NAA=     0 NBB=     0.
 DE(Corr)= -0.80184093     E(CORR)=     -1032.6054329     Delta=-1.71D-09
 NORM(A)=   0.11341546D+01
 Iteration Nr.  19
 **********************
 DD1Dir will call FoFMem   1 times, MxPair=       156
 NAB=    78 NAA=     0 NBB=     0.
 DE(Corr)= -0.80184093     E(CORR)=     -1032.6054329     Delta= 1.10D-09
 NORM(A)=   0.11341546D+01
 Largest amplitude= 4.26D-02

 Z-AMPLITUDE ITERATIONS

 Iteration Nr.   1
 **********************
 DD1Dir will call FoFMem   1 times, MxPair=       156
 NAB=    78 NAA=     0 NBB=     0.
 DE(Z)  -0.77399136D+00          E(Z)=    -0.10325775833D+04
 NORM(A)=   0.11341531D+01
 Iteration Nr.   2
 **********************
 DD1Dir will call FoFMem   1 times, MxPair=       156
 NAB=    78 NAA=     0 NBB=     0.
 DE(Z)  -0.77399131D+00          E(Z)=    -0.10325775833D+04
 NORM(A)=   0.11341547D+01
 Iteration Nr.   3
 **********************
 DD1Dir will call FoFMem   1 times, MxPair=       156
 NAB=    78 NAA=     0 NBB=     0.
 DE(Z)  -0.77399136D+00          E(Z)=    -0.10325775833D+04
 NORM(A)=   0.11341547D+01
 Iteration Nr.   4
 **********************
 DD1Dir will call FoFMem   1 times, MxPair=       156
 NAB=    78 NAA=     0 NBB=     0.
 DE(Z)  -0.77399136D+00          E(Z)=    -0.10325775833D+04
 NORM(A)=   0.11341547D+01
 Iteration Nr.   5
 **********************
 DD1Dir will call FoFMem   1 times, MxPair=       156
 NAB=    78 NAA=     0 NBB=     0.
 DE(Z)  -0.77399136D+00          E(Z)=    -0.10325775833D+04
 NORM(A)=   0.11246525D+01
 Iteration Nr.   6
 **********************
 DD1Dir will call FoFMem   1 times, MxPair=       156
 NAB=    78 NAA=     0 NBB=     0.
 DE(Z)  -0.77368580D+00          E(Z)=    -0.10325772778D+04
 NORM(A)=   0.11246061D+01
 Iteration Nr.   7
 **********************
 DD1Dir will call FoFMem   1 times, MxPair=       156
 NAB=    78 NAA=     0 NBB=     0.
 DE(Z)  -0.77366700D+00          E(Z)=    -0.10325772590D+04
 NORM(A)=   0.11245858D+01
 Iteration Nr.   8
 **********************
 DD1Dir will call FoFMem   1 times, MxPair=       156
 NAB=    78 NAA=     0 NBB=     0.
 DE(Z)  -0.77365999D+00          E(Z)=    -0.10325772519D+04
 NORM(A)=   0.11245733D+01
 Iteration Nr.   9
 **********************
 DD1Dir will call FoFMem   1 times, MxPair=       156
 NAB=    78 NAA=     0 NBB=     0.
 DE(Z)  -0.77366008D+00          E(Z)=    -0.10325772520D+04
 NORM(A)=   0.11245739D+01
 Iteration Nr.  10
 **********************
 DD1Dir will call FoFMem   1 times, MxPair=       156
 NAB=    78 NAA=     0 NBB=     0.
 DE(Z)  -0.77365997D+00          E(Z)=    -0.10325772519D+04
 NORM(A)=   0.11245744D+01
 Iteration Nr.  11
 **********************
 DD1Dir will call FoFMem   1 times, MxPair=       156
 NAB=    78 NAA=     0 NBB=     0.
 DE(Z)  -0.77366000D+00          E(Z)=    -0.10325772519D+04
 NORM(A)=   0.11245746D+01
 Iteration Nr.  12
 **********************
 DD1Dir will call FoFMem   1 times, MxPair=       156
 NAB=    78 NAA=     0 NBB=     0.
 DE(Z)  -0.77366034D+00          E(Z)=    -0.10325772523D+04
 NORM(A)=   0.11245749D+01
 Iteration Nr.  13
 **********************
 DD1Dir will call FoFMem   1 times, MxPair=       156
 NAB=    78 NAA=     0 NBB=     0.
 DE(Z)  -0.77366019D+00          E(Z)=    -0.10325772521D+04
 NORM(A)=   0.11245749D+01
 Iteration Nr.  14
 **********************
 DD1Dir will call FoFMem   1 times, MxPair=       156
 NAB=    78 NAA=     0 NBB=     0.
 DE(Z)  -0.77366028D+00          E(Z)=    -0.10325772522D+04
 NORM(A)=   0.11245749D+01
 Iteration Nr.  15
 **********************
 DD1Dir will call FoFMem   1 times, MxPair=       156
 NAB=    78 NAA=     0 NBB=     0.
 DE(Z)  -0.77366027D+00          E(Z)=    -0.10325772522D+04
 NORM(A)=   0.11245750D+01
 Iteration Nr.  16
 **********************
 DD1Dir will call FoFMem   1 times, MxPair=       156
 NAB=    78 NAA=     0 NBB=     0.
 DE(Z)  -0.77366027D+00          E(Z)=    -0.10325772522D+04
 NORM(A)=   0.11245750D+01
 Iteration Nr.  17
 **********************
 DD1Dir will call FoFMem   1 times, MxPair=       156
 NAB=    78 NAA=     0 NBB=     0.
 DE(Z)  -0.77366027D+00          E(Z)=    -0.10325772522D+04
 NORM(A)=   0.11245750D+01
 Discarding MO integrals.
          Differentiating once with respect to electric field.
                with respect to dipole field.
          Electric field/nuclear overlap derivatives assumed to be zero.
          Keep R1 ints in memory in canonical form, NReq=342715808.
          There are     1 degrees of freedom in the 1st order CPHF.  IDoFFX=0.
 LinEq1:  Iter=  0 NonCon=     1 RMS=2.32D-03 Max=6.26D-02
 AX will form     1 AO Fock derivatives at one time.
 LinEq1:  Iter=  1 NonCon=     1 RMS=8.23D-04 Max=1.92D-02
 LinEq1:  Iter=  2 NonCon=     1 RMS=3.06D-04 Max=6.26D-03
 LinEq1:  Iter=  3 NonCon=     1 RMS=1.25D-04 Max=3.58D-03
 LinEq1:  Iter=  4 NonCon=     1 RMS=4.96D-05 Max=1.21D-03
 LinEq1:  Iter=  5 NonCon=     1 RMS=1.63D-05 Max=3.87D-04
 LinEq1:  Iter=  6 NonCon=     1 RMS=4.07D-06 Max=5.83D-05
 LinEq1:  Iter=  7 NonCon=     1 RMS=9.60D-07 Max=1.10D-05
 LinEq1:  Iter=  8 NonCon=     1 RMS=2.02D-07 Max=2.95D-06
 LinEq1:  Iter=  9 NonCon=     1 RMS=4.55D-08 Max=8.12D-07
 LinEq1:  Iter= 10 NonCon=     1 RMS=1.15D-08 Max=2.11D-07
 LinEq1:  Iter= 11 NonCon=     1 RMS=2.41D-09 Max=3.66D-08
 LinEq1:  Iter= 12 NonCon=     1 RMS=4.38D-10 Max=1.10D-08
 LinEq1:  Iter= 13 NonCon=     1 RMS=7.40D-11 Max=1.17D-09
 LinEq1:  Iter= 14 NonCon=     0 RMS=1.06D-11 Max=1.21D-10
 Linear equations converged to 1.000D-10 1.000D-09 after    14 iterations.
 End of Minotr Frequency-dependent properties file   721 does not exist.
 End of Minotr Frequency-dependent properties file   722 does not exist.

 **********************************************************************

            Population analysis using the QCI/CC density.

 **********************************************************************

     Natural Orbital Coefficients:
                           1         2         3         4         5
     Eigenvalues --     2.00004   2.00004   2.00003   2.00003   2.00003
   1 1   O  1S          0.00000   0.01111   0.00000   0.00000   0.00000
   2        2S          0.00000  -0.00027   0.00000   0.00000   0.00000
   3        3S          0.00000   0.00051   0.00000   0.00000   0.00000
   4        4S          0.00000   0.00083   0.00000   0.00000   0.00000
   5        5S          0.00000   0.00300   0.00000   0.00000   0.00000
   6        6PX         0.00000   0.00000   0.00000  -0.00106   0.00000
   7        6PY        -0.00018   0.00000   0.00000   0.00000   0.00026
   8        6PZ         0.00000   0.00032   0.00000   0.00000   0.00000
   9        7PX         0.00000   0.00000   0.00000  -0.00158   0.00000
  10        7PY        -0.00101   0.00000   0.00000   0.00000   0.00049
  11        7PZ         0.00000   0.00062   0.00000   0.00000   0.00000
  12        8PX         0.00000   0.00000   0.00000  -0.00151   0.00000
  13        8PY        -0.00368   0.00000   0.00000   0.00000   0.00158
  14        8PZ         0.00000   0.00240   0.00000   0.00000   0.00000
  15        9PX         0.00000   0.00000   0.00000   0.00035   0.00000
  16        9PY        -0.00047   0.00000   0.00000   0.00000   0.00119
  17        9PZ         0.00000   0.00025   0.00000   0.00000   0.00000
  18       10D 0        0.00000   0.00001   0.00000   0.00000   0.00000
  19       10D+1        0.00000   0.00000   0.00000  -0.00003   0.00000
  20       10D-1       -0.00001   0.00000   0.00000   0.00000   0.00003
  21       10D+2        0.00000   0.00003   0.00000   0.00000   0.00000
  22       10D-2        0.00000   0.00000   0.00001   0.00000   0.00000
  23       11D 0        0.00000  -0.00022   0.00000   0.00000   0.00000
  24       11D+1        0.00000   0.00000   0.00000   0.00013   0.00000
  25       11D-1       -0.00008   0.00000   0.00000   0.00000  -0.00009
  26       11D+2        0.00000  -0.00025   0.00000   0.00000   0.00000
  27       11D-2        0.00000   0.00000   0.00002   0.00000   0.00000
  28       12D 0        0.00000  -0.00071   0.00000   0.00000   0.00000
  29       12D+1        0.00000   0.00000   0.00000   0.00015   0.00000
  30       12D-1        0.00056   0.00000   0.00000   0.00000  -0.00028
  31       12D+2        0.00000   0.00019   0.00000   0.00000   0.00000
  32       12D-2        0.00000   0.00000  -0.00084   0.00000   0.00000
  33       13F 0        0.00000   0.00001   0.00000   0.00000   0.00000
  34       13F+1        0.00000   0.00000   0.00000   0.00002   0.00000
  35       13F-1        0.00003   0.00000   0.00000   0.00000  -0.00002
  36       13F+2        0.00000   0.00000   0.00000   0.00000   0.00000
  37       13F-2        0.00000   0.00000  -0.00006   0.00000   0.00000
  38       13F+3        0.00000   0.00000   0.00000   0.00004   0.00000
  39       13F-3        0.00004   0.00000   0.00000   0.00000   0.00000
  40       14F 0        0.00000   0.00011   0.00000   0.00000   0.00000
  41       14F+1        0.00000   0.00000   0.00000  -0.00008   0.00000
  42       14F-1        0.00032   0.00000   0.00000   0.00000   0.00003
  43       14F+2        0.00000   0.00014   0.00000   0.00000   0.00000
  44       14F-2        0.00000   0.00000   0.00020   0.00000   0.00000
  45       14F+3        0.00000   0.00000   0.00000  -0.00017   0.00000
  46       14F-3       -0.00020   0.00000   0.00000   0.00000   0.00004
  47 2   C  1S          0.00000  -0.01161   0.00000   0.00000   0.00000
  48        2S          0.00000   0.00144   0.00000   0.00000   0.00000
  49        3S          0.00000  -0.00015   0.00000   0.00000   0.00000
  50        4S          0.00000  -0.00017   0.00000   0.00000   0.00000
  51        5S          0.00000   0.00123   0.00000   0.00000   0.00000
  52        6PX         0.00000   0.00000   0.00000   0.00168   0.00000
  53        6PY         0.00051   0.00000   0.00000   0.00000  -0.00071
  54        6PZ         0.00000   0.00043   0.00000   0.00000   0.00000
  55        7PX         0.00000   0.00000   0.00000   0.00196   0.00000
  56        7PY         0.00030   0.00000   0.00000   0.00000   0.00017
  57        7PZ         0.00000   0.00191   0.00000   0.00000   0.00000
  58        8PX         0.00000   0.00000   0.00000   0.00087   0.00000
  59        8PY         0.00067   0.00000   0.00000   0.00000   0.00246
  60        8PZ         0.00000  -0.00201   0.00000   0.00000   0.00000
  61        9PX         0.00000   0.00000   0.00000  -0.00073   0.00000
  62        9PY        -0.00040   0.00000   0.00000   0.00000  -0.00113
  63        9PZ         0.00000  -0.00099   0.00000   0.00000   0.00000
  64       10D 0        0.00000  -0.00032   0.00000   0.00000   0.00000
  65       10D+1        0.00000   0.00000   0.00000  -0.00031   0.00000
  66       10D-1        0.00005   0.00000   0.00000   0.00000  -0.00001
  67       10D+2        0.00000  -0.00022   0.00000   0.00000   0.00000
  68       10D-2        0.00000   0.00000   0.00036   0.00000   0.00000
  69       11D 0        0.00000   0.00037   0.00000   0.00000   0.00000
  70       11D+1        0.00000   0.00000   0.00000   0.00025   0.00000
  71       11D-1        0.00021   0.00000   0.00000   0.00000  -0.00155
  72       11D+2        0.00000   0.00066   0.00000   0.00000   0.00000
  73       11D-2        0.00000   0.00000  -0.00011   0.00000   0.00000
  74       12D 0        0.00000  -0.00394   0.00000   0.00000   0.00000
  75       12D+1        0.00000   0.00000   0.00000  -0.00082   0.00000
  76       12D-1        0.00108   0.00000   0.00000   0.00000  -0.00226
  77       12D+2        0.00000  -0.00228   0.00000   0.00000   0.00000
  78       12D-2        0.00000   0.00000   0.00144   0.00000   0.00000
  79       13F 0        0.00000   0.00017   0.00000   0.00000   0.00000
  80       13F+1        0.00000   0.00000   0.00000   0.00007   0.00000
  81       13F-1       -0.00042   0.00000   0.00000   0.00000   0.00002
  82       13F+2        0.00000   0.00002   0.00000   0.00000   0.00000
  83       13F-2        0.00000   0.00000  -0.00011   0.00000   0.00000
  84       13F+3        0.00000   0.00000   0.00000  -0.00009   0.00000
  85       13F-3       -0.00009   0.00000   0.00000   0.00000   0.00000
  86       14F 0        0.00000  -0.00091   0.00000   0.00000   0.00000
  87       14F+1        0.00000   0.00000   0.00000   0.00011   0.00000
  88       14F-1        0.00403   0.00000   0.00000   0.00000  -0.00044
  89       14F+2        0.00000  -0.00006   0.00000   0.00000   0.00000
  90       14F-2        0.00000   0.00000   0.00122   0.00000   0.00000
  91       14F+3        0.00000   0.00000   0.00000   0.00062   0.00000
  92       14F-3        0.00120   0.00000   0.00000   0.00000  -0.00042
  93 3   Cl 1S         -0.00030  -0.00250   0.00000   0.00000  -0.17338
  94        2S          0.00138   0.00880   0.00000   0.00000   0.58530
  95        3S          0.00043   0.00012   0.00000   0.00000  -0.01734
  96        4S          0.00008   0.00049   0.00000   0.00000   0.04539
  97        5S         -0.00059  -0.00102   0.00000   0.00000  -0.00096
  98        6S         -0.00068  -0.00195   0.00000   0.00000  -0.00161
  99        7PX         0.00000   0.00000   0.69251  -0.69203   0.00000
 100        7PY        -0.39192   0.34499   0.00000   0.00000  -0.31061
 101        7PZ         0.57154  -0.60066   0.00000   0.00000  -0.21415
 102        8PX         0.00000   0.00000  -0.01496   0.01342   0.00000
 103        8PY         0.00985  -0.00730   0.00000   0.00000   0.00605
 104        8PZ        -0.01396   0.01389   0.00000   0.00000   0.00434
 105        9PX         0.00000   0.00000   0.03666  -0.03711   0.00000
 106        9PY        -0.02037   0.01797   0.00000   0.00000  -0.01766
 107        9PZ         0.02987  -0.03150   0.00000   0.00000  -0.01220
 108       10PX         0.00000   0.00000  -0.00381   0.00333   0.00000
 109       10PY         0.00306  -0.00148   0.00000   0.00000   0.00171
 110       10PZ        -0.00503   0.00200   0.00000   0.00000   0.00133
 111       11PX         0.00000   0.00000  -0.00056   0.00081   0.00000
 112       11PY         0.00041  -0.00043   0.00000   0.00000   0.00016
 113       11PZ        -0.00064   0.00027   0.00000   0.00000  -0.00009
 114       12D 0        0.00043  -0.00025   0.00000   0.00000  -0.00005
 115       12D+1        0.00000   0.00000   0.00016  -0.00015   0.00000
 116       12D-1        0.00022  -0.00013   0.00000   0.00000   0.00013
 117       12D+2        0.00024  -0.00013   0.00000   0.00000  -0.00005
 118       12D-2        0.00000   0.00000   0.00029  -0.00014   0.00000
 119       13D 0       -0.00193   0.00106   0.00000   0.00000   0.00023
 120       13D+1        0.00000   0.00000  -0.00072   0.00060   0.00000
 121       13D-1       -0.00081   0.00102   0.00000   0.00000   0.00065
 122       13D+2       -0.00084   0.00063   0.00000   0.00000  -0.00039
 123       13D-2        0.00000   0.00000  -0.00107   0.00097   0.00000
 124       14D 0       -0.00006  -0.00075   0.00000   0.00000  -0.00005
 125       14D+1        0.00000   0.00000   0.00043   0.00005   0.00000
 126       14D-1       -0.00006  -0.00019   0.00000   0.00000   0.00028
 127       14D+2        0.00008  -0.00045   0.00000   0.00000   0.00014
 128       14D-2        0.00000   0.00000   0.00025  -0.00010   0.00000
 129       15F 0        0.00000   0.00002   0.00000   0.00000   0.00002
 130       15F+1        0.00000   0.00000  -0.00007  -0.00004   0.00000
 131       15F-1        0.00001   0.00003   0.00000   0.00000   0.00002
 132       15F+2        0.00003   0.00002   0.00000   0.00000  -0.00001
 133       15F-2        0.00000   0.00000   0.00000  -0.00001   0.00000
 134       15F+3        0.00000   0.00000  -0.00001  -0.00001   0.00000
 135       15F-3        0.00002   0.00004   0.00000   0.00000  -0.00001
 136       16F 0       -0.00039  -0.00013   0.00000   0.00000  -0.00014
 137       16F+1        0.00000   0.00000   0.00014   0.00016   0.00000
 138       16F-1       -0.00090   0.00050   0.00000   0.00000   0.00016
 139       16F+2       -0.00005  -0.00029   0.00000   0.00000  -0.00022
 140       16F-2        0.00000   0.00000  -0.00036   0.00033   0.00000
 141       16F+3        0.00000   0.00000   0.00032  -0.00028   0.00000
 142       16F-3       -0.00019   0.00018   0.00000   0.00000  -0.00006
 143 4   Cl 1S          0.00030  -0.00250   0.00000   0.00000   0.17338
 144        2S         -0.00138   0.00880   0.00000   0.00000  -0.58530
 145        3S         -0.00043   0.00012   0.00000   0.00000   0.01734
 146        4S         -0.00008   0.00049   0.00000   0.00000  -0.04539
 147        5S          0.00059  -0.00102   0.00000   0.00000   0.00096
 148        6S          0.00068  -0.00195   0.00000   0.00000   0.00161
 149        7PX         0.00000   0.00000  -0.69251  -0.69203   0.00000
 150        7PY        -0.39192  -0.34499   0.00000   0.00000  -0.31061
 151        7PZ        -0.57154  -0.60066   0.00000   0.00000   0.21415
 152        8PX         0.00000   0.00000   0.01496   0.01342   0.00000
 153        8PY         0.00985   0.00730   0.00000   0.00000   0.00605
 154        8PZ         0.01396   0.01389   0.00000   0.00000  -0.00434
 155        9PX         0.00000   0.00000  -0.03666  -0.03711   0.00000
 156        9PY        -0.02037  -0.01797   0.00000   0.00000  -0.01766
 157        9PZ        -0.02987  -0.03150   0.00000   0.00000   0.01220
 158       10PX         0.00000   0.00000   0.00381   0.00333   0.00000
 159       10PY         0.00306   0.00148   0.00000   0.00000   0.00171
 160       10PZ         0.00503   0.00200   0.00000   0.00000  -0.00133
 161       11PX         0.00000   0.00000   0.00056   0.00081   0.00000
 162       11PY         0.00041   0.00043   0.00000   0.00000   0.00016
 163       11PZ         0.00064   0.00027   0.00000   0.00000   0.00009
 164       12D 0       -0.00043  -0.00025   0.00000   0.00000   0.00005
 165       12D+1        0.00000   0.00000  -0.00016  -0.00015   0.00000
 166       12D-1        0.00022   0.00013   0.00000   0.00000   0.00013
 167       12D+2       -0.00024  -0.00013   0.00000   0.00000   0.00005
 168       12D-2        0.00000   0.00000   0.00029   0.00014   0.00000
 169       13D 0        0.00193   0.00106   0.00000   0.00000  -0.00023
 170       13D+1        0.00000   0.00000   0.00072   0.00060   0.00000
 171       13D-1       -0.00081  -0.00102   0.00000   0.00000   0.00065
 172       13D+2        0.00084   0.00063   0.00000   0.00000   0.00039
 173       13D-2        0.00000   0.00000  -0.00107  -0.00097   0.00000
 174       14D 0        0.00006  -0.00075   0.00000   0.00000   0.00005
 175       14D+1        0.00000   0.00000  -0.00043   0.00005   0.00000
 176       14D-1       -0.00006   0.00019   0.00000   0.00000   0.00028
 177       14D+2       -0.00008  -0.00045   0.00000   0.00000  -0.00014
 178       14D-2        0.00000   0.00000   0.00025   0.00010   0.00000
 179       15F 0        0.00000   0.00002   0.00000   0.00000  -0.00002
 180       15F+1        0.00000   0.00000   0.00007  -0.00004   0.00000
 181       15F-1        0.00001  -0.00003   0.00000   0.00000   0.00002
 182       15F+2       -0.00003   0.00002   0.00000   0.00000   0.00001
 183       15F-2        0.00000   0.00000   0.00000   0.00001   0.00000
 184       15F+3        0.00000   0.00000   0.00001  -0.00001   0.00000
 185       15F-3        0.00002  -0.00004   0.00000   0.00000  -0.00001
 186       16F 0        0.00039  -0.00013   0.00000   0.00000   0.00014
 187       16F+1        0.00000   0.00000  -0.00014   0.00016   0.00000
 188       16F-1       -0.00090  -0.00050   0.00000   0.00000   0.00016
 189       16F+2        0.00005  -0.00029   0.00000   0.00000   0.00022
 190       16F-2        0.00000   0.00000  -0.00036  -0.00033   0.00000
 191       16F+3        0.00000   0.00000  -0.00032  -0.00028   0.00000
 192       16F-3       -0.00019  -0.00018   0.00000   0.00000  -0.00006
                           6         7         8         9        10
     Eigenvalues --     2.00003   2.00001   2.00001   2.00001   2.00000
   1 1   O  1S          0.01444   0.00000   0.25604   0.87722   0.35198
   2        2S         -0.00044   0.00000  -0.00557  -0.01603  -0.00577
   3        3S          0.00057   0.00000   0.01072   0.03736   0.01538
   4        4S          0.00067   0.00000  -0.00041  -0.00309  -0.00105
   5        5S          0.00030   0.00000   0.00184  -0.00088  -0.00167
   6        6PX         0.00000   0.00000   0.00000   0.00000   0.00000
   7        6PY         0.00000  -0.00080   0.00000   0.00000   0.00000
   8        6PZ        -0.00011   0.00000  -0.00179  -0.00377   0.00044
   9        7PX         0.00000   0.00000   0.00000   0.00000   0.00000
  10        7PY         0.00000  -0.00137   0.00000   0.00000   0.00000
  11        7PZ        -0.00023   0.00000  -0.00134  -0.00088   0.00315
  12        8PX         0.00000   0.00000   0.00000   0.00000   0.00000
  13        8PY         0.00000  -0.00422   0.00000   0.00000   0.00000
  14        8PZ        -0.00077   0.00000  -0.00205  -0.00271   0.00277
  15        9PX         0.00000   0.00000   0.00000   0.00000   0.00000
  16        9PY         0.00000  -0.00155   0.00000   0.00000   0.00000
  17        9PZ         0.00017   0.00000  -0.00028  -0.00033   0.00087
  18       10D 0        0.00002   0.00000   0.00010   0.00022   0.00003
  19       10D+1        0.00000   0.00000   0.00000   0.00000   0.00000
  20       10D-1        0.00000  -0.00004   0.00000   0.00000   0.00000
  21       10D+2        0.00000   0.00000   0.00000  -0.00007   0.00000
  22       10D-2        0.00000   0.00000   0.00000   0.00000   0.00000
  23       11D 0        0.00007   0.00000   0.00008  -0.00033  -0.00103
  24       11D+1        0.00000   0.00000   0.00000   0.00000   0.00000
  25       11D-1        0.00000   0.00010   0.00000   0.00000   0.00000
  26       11D+2       -0.00002   0.00000  -0.00018  -0.00003  -0.00012
  27       11D-2        0.00000   0.00000   0.00000   0.00000   0.00000
  28       12D 0        0.00006   0.00000   0.00000   0.00076  -0.00096
  29       12D+1        0.00000   0.00000   0.00000   0.00000   0.00000
  30       12D-1        0.00000   0.00106   0.00000   0.00000   0.00000
  31       12D+2       -0.00022   0.00000  -0.00063   0.00016  -0.00002
  32       12D-2        0.00000   0.00000   0.00000   0.00000   0.00000
  33       13F 0        0.00002   0.00000   0.00011   0.00006  -0.00015
  34       13F+1        0.00000   0.00000   0.00000   0.00000   0.00000
  35       13F-1        0.00000   0.00006   0.00000   0.00000   0.00000
  36       13F+2       -0.00001   0.00000  -0.00002  -0.00002  -0.00002
  37       13F-2        0.00000   0.00000   0.00000   0.00000   0.00000
  38       13F+3        0.00000   0.00000   0.00000   0.00000   0.00000
  39       13F-3        0.00000   0.00000   0.00000   0.00000   0.00000
  40       14F 0        0.00007   0.00000   0.00015  -0.00007   0.00053
  41       14F+1        0.00000   0.00000   0.00000   0.00000   0.00000
  42       14F-1        0.00000  -0.00004   0.00000   0.00000   0.00000
  43       14F+2        0.00009   0.00000   0.00029  -0.00010   0.00019
  44       14F-2        0.00000   0.00000   0.00000   0.00000   0.00000
  45       14F+3        0.00000   0.00000   0.00000   0.00000   0.00000
  46       14F-3        0.00000  -0.00007   0.00000   0.00000   0.00000
  47 2   C  1S         -0.14565   0.00000  -0.61405  -0.11615   0.74173
  48        2S          0.00294   0.00000   0.01074   0.00098  -0.00667
  49        3S         -0.00533   0.00000  -0.02393  -0.00554   0.03224
  50        4S         -0.00635   0.00000  -0.00590   0.00563  -0.01223
  51        5S         -0.00042   0.00000  -0.00253   0.00145  -0.00228
  52        6PX         0.00000   0.00000   0.00000   0.00000   0.00000
  53        6PY         0.00000   0.00245   0.00000   0.00000   0.00000
  54        6PZ        -0.00038   0.00000  -0.00061   0.00101  -0.00197
  55        7PX         0.00000   0.00000   0.00000   0.00000   0.00000
  56        7PY         0.00000  -0.00036   0.00000   0.00000   0.00000
  57        7PZ        -0.00071   0.00000  -0.00136   0.00072   0.00499
  58        8PX         0.00000   0.00000   0.00000   0.00000   0.00000
  59        8PY         0.00000  -0.00001   0.00000   0.00000   0.00000
  60        8PZ         0.00243   0.00000   0.00167  -0.00105   0.00407
  61        9PX         0.00000   0.00000   0.00000   0.00000   0.00000
  62        9PY         0.00000   0.00142   0.00000   0.00000   0.00000
  63        9PZ        -0.00028   0.00000   0.00012   0.00016   0.00016
  64       10D 0       -0.00007   0.00000  -0.00026   0.00005   0.00071
  65       10D+1        0.00000   0.00000   0.00000   0.00000   0.00000
  66       10D-1        0.00000  -0.00013   0.00000   0.00000   0.00000
  67       10D+2        0.00007   0.00000   0.00012   0.00003  -0.00016
  68       10D-2        0.00000   0.00000   0.00000   0.00000   0.00000
  69       11D 0       -0.00023   0.00000  -0.00003   0.00086   0.00101
  70       11D+1        0.00000   0.00000   0.00000   0.00000   0.00000
  71       11D-1        0.00000   0.00277   0.00000   0.00000   0.00000
  72       11D+2        0.00091   0.00000   0.00057  -0.00116   0.00329
  73       11D-2        0.00000   0.00000   0.00000   0.00000   0.00000
  74       12D 0       -0.00013   0.00000  -0.00045  -0.00010  -0.00066
  75       12D+1        0.00000   0.00000   0.00000   0.00000   0.00000
  76       12D-1        0.00000   0.00255   0.00000   0.00000   0.00000
  77       12D+2        0.00078   0.00000   0.00107  -0.00086   0.00113
  78       12D-2        0.00000   0.00000   0.00000   0.00000   0.00000
  79       13F 0       -0.00016   0.00000  -0.00030  -0.00017   0.00036
  80       13F+1        0.00000   0.00000   0.00000   0.00000   0.00000
  81       13F-1        0.00000  -0.00007   0.00000   0.00000   0.00000
  82       13F+2       -0.00002   0.00000   0.00010  -0.00007  -0.00008
  83       13F-2        0.00000   0.00000   0.00000   0.00000   0.00000
  84       13F+3        0.00000   0.00000   0.00000   0.00000   0.00000
  85       13F-3        0.00000  -0.00003   0.00000   0.00000   0.00000
  86       14F 0        0.00022   0.00000   0.00107   0.00089  -0.00089
  87       14F+1        0.00000   0.00000   0.00000   0.00000   0.00000
  88       14F-1        0.00000   0.00155   0.00000   0.00000   0.00000
  89       14F+2       -0.00006   0.00000   0.00060   0.00034  -0.00097
  90       14F-2        0.00000   0.00000   0.00000   0.00000   0.00000
  91       14F+3        0.00000   0.00000   0.00000   0.00000   0.00000
  92       14F-3        0.00000   0.00079   0.00000   0.00000   0.00000
  93 3   Cl 1S         -0.17720  -0.11181   0.09165  -0.03797   0.03525
  94        2S          0.59781   0.37930  -0.31279   0.12955  -0.12031
  95        3S         -0.01783  -0.00668   0.00472  -0.00156   0.00079
  96        4S          0.04653   0.03155  -0.02550   0.01092  -0.01079
  97        5S         -0.00187  -0.00639   0.00432  -0.00359   0.00809
  98        6S         -0.00020   0.00279   0.00089  -0.00077   0.00224
  99        7PX         0.00000   0.00000   0.00000   0.00000   0.00000
 100        7PY        -0.30080   0.47640  -0.34954   0.22535  -0.30574
 101        7PZ        -0.16286   0.32583  -0.19686   0.14047  -0.18108
 102        8PX         0.00000   0.00000   0.00000   0.00000   0.00000
 103        8PY         0.00529  -0.00844   0.00518  -0.00340   0.00514
 104        8PZ         0.00285  -0.00623   0.00295  -0.00219   0.00360
 105        9PX         0.00000   0.00000   0.00000   0.00000   0.00000
 106        9PY        -0.01711   0.02906  -0.02130   0.01403  -0.01960
 107        9PZ        -0.00932   0.02004  -0.01202   0.00876  -0.01177
 108       10PX         0.00000   0.00000   0.00000   0.00000   0.00000
 109       10PY         0.00226  -0.00008   0.00107  -0.00094   0.00309
 110       10PZ         0.00119  -0.00054   0.00041  -0.00102   0.00220
 111       11PX         0.00000   0.00000   0.00000   0.00000   0.00000
 112       11PY         0.00003   0.00009   0.00006  -0.00005   0.00020
 113       11PZ         0.00012   0.00025   0.00004  -0.00016   0.00019
 114       12D 0       -0.00005   0.00001   0.00000   0.00002   0.00000
 115       12D+1        0.00000   0.00000   0.00000   0.00000   0.00000
 116       12D-1        0.00017   0.00042  -0.00025   0.00025  -0.00034
 117       12D+2       -0.00009  -0.00032   0.00023  -0.00014   0.00021
 118       12D-2        0.00000   0.00000   0.00000   0.00000   0.00000
 119       13D 0       -0.00007  -0.00047  -0.00011   0.00007   0.00006
 120       13D+1        0.00000   0.00000   0.00000   0.00000   0.00000
 121       13D-1        0.00038  -0.00225   0.00089  -0.00093   0.00210
 122       13D+2       -0.00048   0.00122  -0.00105   0.00066  -0.00132
 123       13D-2        0.00000   0.00000   0.00000   0.00000   0.00000
 124       14D 0       -0.00008  -0.00010  -0.00005  -0.00010   0.00008
 125       14D+1        0.00000   0.00000   0.00000   0.00000   0.00000
 126       14D-1        0.00030   0.00013  -0.00026  -0.00017   0.00066
 127       14D+2       -0.00034  -0.00068  -0.00002   0.00007  -0.00052
 128       14D-2        0.00000   0.00000   0.00000   0.00000   0.00000
 129       15F 0        0.00000  -0.00001  -0.00003  -0.00002   0.00002
 130       15F+1        0.00000   0.00000   0.00000   0.00000   0.00000
 131       15F-1        0.00000  -0.00007   0.00001   0.00004  -0.00002
 132       15F+2        0.00000   0.00004  -0.00003  -0.00004  -0.00001
 133       15F-2        0.00000   0.00000   0.00000   0.00000   0.00000
 134       15F+3        0.00000   0.00000   0.00000   0.00000   0.00000
 135       15F-3       -0.00003   0.00002  -0.00007   0.00003  -0.00005
 136       16F 0       -0.00004   0.00029   0.00006   0.00014  -0.00034
 137       16F+1        0.00000   0.00000   0.00000   0.00000   0.00000
 138       16F-1        0.00001  -0.00047   0.00000  -0.00015   0.00038
 139       16F+2       -0.00017   0.00059  -0.00018   0.00030  -0.00060
 140       16F-2        0.00000   0.00000   0.00000   0.00000   0.00000
 141       16F+3        0.00000   0.00000   0.00000   0.00000   0.00000
 142       16F-3       -0.00011   0.00017  -0.00021   0.00008  -0.00024
 143 4   Cl 1S         -0.17720   0.11181   0.09165  -0.03797   0.03525
 144        2S          0.59781  -0.37930  -0.31279   0.12955  -0.12031
 145        3S         -0.01783   0.00668   0.00472  -0.00156   0.00079
 146        4S          0.04653  -0.03155  -0.02550   0.01092  -0.01079
 147        5S         -0.00187   0.00639   0.00432  -0.00359   0.00809
 148        6S         -0.00020  -0.00279   0.00089  -0.00077   0.00224
 149        7PX         0.00000   0.00000   0.00000   0.00000   0.00000
 150        7PY         0.30080   0.47640   0.34954  -0.22535   0.30574
 151        7PZ        -0.16286  -0.32583  -0.19686   0.14047  -0.18108
 152        8PX         0.00000   0.00000   0.00000   0.00000   0.00000
 153        8PY        -0.00529  -0.00844  -0.00518   0.00340  -0.00514
 154        8PZ         0.00285   0.00623   0.00295  -0.00219   0.00360
 155        9PX         0.00000   0.00000   0.00000   0.00000   0.00000
 156        9PY         0.01711   0.02906   0.02130  -0.01403   0.01960
 157        9PZ        -0.00932  -0.02004  -0.01202   0.00876  -0.01177
 158       10PX         0.00000   0.00000   0.00000   0.00000   0.00000
 159       10PY        -0.00226  -0.00008  -0.00107   0.00094  -0.00309
 160       10PZ         0.00119   0.00054   0.00041  -0.00102   0.00220
 161       11PX         0.00000   0.00000   0.00000   0.00000   0.00000
 162       11PY        -0.00003   0.00009  -0.00006   0.00005  -0.00020
 163       11PZ         0.00012  -0.00025   0.00004  -0.00016   0.00019
 164       12D 0       -0.00005  -0.00001   0.00000   0.00002   0.00000
 165       12D+1        0.00000   0.00000   0.00000   0.00000   0.00000
 166       12D-1       -0.00017   0.00042   0.00025  -0.00025   0.00034
 167       12D+2       -0.00009   0.00032   0.00023  -0.00014   0.00021
 168       12D-2        0.00000   0.00000   0.00000   0.00000   0.00000
 169       13D 0       -0.00007   0.00047  -0.00011   0.00007   0.00006
 170       13D+1        0.00000   0.00000   0.00000   0.00000   0.00000
 171       13D-1       -0.00038  -0.00225  -0.00089   0.00093  -0.00210
 172       13D+2       -0.00048  -0.00122  -0.00105   0.00066  -0.00132
 173       13D-2        0.00000   0.00000   0.00000   0.00000   0.00000
 174       14D 0       -0.00008   0.00010  -0.00005  -0.00010   0.00008
 175       14D+1        0.00000   0.00000   0.00000   0.00000   0.00000
 176       14D-1       -0.00030   0.00013   0.00026   0.00017  -0.00066
 177       14D+2       -0.00034   0.00068  -0.00002   0.00007  -0.00052
 178       14D-2        0.00000   0.00000   0.00000   0.00000   0.00000
 179       15F 0        0.00000   0.00001  -0.00003  -0.00002   0.00002
 180       15F+1        0.00000   0.00000   0.00000   0.00000   0.00000
 181       15F-1        0.00000  -0.00007  -0.00001  -0.00004   0.00002
 182       15F+2        0.00000  -0.00004  -0.00003  -0.00004  -0.00001
 183       15F-2        0.00000   0.00000   0.00000   0.00000   0.00000
 184       15F+3        0.00000   0.00000   0.00000   0.00000   0.00000
 185       15F-3        0.00003   0.00002   0.00007  -0.00003   0.00005
 186       16F 0       -0.00004  -0.00029   0.00006   0.00014  -0.00034
 187       16F+1        0.00000   0.00000   0.00000   0.00000   0.00000
 188       16F-1       -0.00001  -0.00047   0.00000   0.00015  -0.00038
 189       16F+2       -0.00017  -0.00059  -0.00018   0.00030  -0.00060
 190       16F-2        0.00000   0.00000   0.00000   0.00000   0.00000
 191       16F+3        0.00000   0.00000   0.00000   0.00000   0.00000
 192       16F-3        0.00011   0.00017   0.00021  -0.00008   0.00024
                          11        12        13        14        15
     Eigenvalues --     2.00000   2.00000   1.98133   1.97617   1.97462
   1 1   O  1S          0.00002   0.00000  -0.18613  -0.06242   0.00000
   2        2S          0.00001   0.00000   0.48116   0.16886   0.00000
   3        3S          0.00000   0.00000   0.13514   0.04851   0.00000
   4        4S          0.00003   0.00000   0.29109   0.13351   0.00000
   5        5S          0.00004   0.00000   0.01910   0.02326   0.00000
   6        6PX         0.00000   0.00000   0.00000   0.00000   0.00000
   7        6PY         0.00000   0.00000   0.00000   0.00000   0.04470
   8        6PZ         0.00000   0.00000  -0.01118   0.02877   0.00000
   9        7PX         0.00000   0.00000   0.00000   0.00000   0.00000
  10        7PY         0.00000   0.00001   0.00000   0.00000   0.05562
  11        7PZ         0.00000   0.00000  -0.01764   0.03063   0.00000
  12        8PX         0.00000   0.00000   0.00000   0.00000   0.00000
  13        8PY         0.00000   0.00006   0.00000   0.00000   0.04050
  14        8PZ         0.00003   0.00000   0.05040   0.02623   0.00000
  15        9PX         0.00000   0.00000   0.00000   0.00000   0.00000
  16        9PY         0.00000   0.00001   0.00000   0.00000   0.00090
  17        9PZ         0.00000   0.00000   0.01417  -0.00039   0.00000
  18       10D 0        0.00000   0.00000   0.00517   0.00004   0.00000
  19       10D+1        0.00000   0.00000   0.00000   0.00000   0.00000
  20       10D-1        0.00000   0.00000   0.00000   0.00000  -0.00219
  21       10D+2        0.00000   0.00000  -0.00001  -0.00002   0.00000
  22       10D-2        0.00000   0.00000   0.00000   0.00000   0.00000
  23       11D 0       -0.00001   0.00000   0.01103   0.00138   0.00000
  24       11D+1        0.00000   0.00000   0.00000   0.00000   0.00000
  25       11D-1        0.00000   0.00000   0.00000   0.00000  -0.00549
  26       11D+2        0.00000   0.00000   0.00027   0.00104   0.00000
  27       11D-2        0.00000   0.00000   0.00000   0.00000   0.00000
  28       12D 0       -0.00002   0.00000  -0.01569  -0.00344   0.00000
  29       12D+1        0.00000   0.00000   0.00000   0.00000   0.00000
  30       12D-1        0.00000  -0.00002   0.00000   0.00000  -0.00400
  31       12D+2        0.00000   0.00000   0.00156   0.00140   0.00000
  32       12D-2        0.00000   0.00000   0.00000   0.00000   0.00000
  33       13F 0        0.00000   0.00000  -0.00280  -0.00032   0.00000
  34       13F+1        0.00000   0.00000   0.00000   0.00000   0.00000
  35       13F-1        0.00000   0.00000   0.00000   0.00000   0.00152
  36       13F+2        0.00000   0.00000   0.00021  -0.00006   0.00000
  37       13F-2        0.00000   0.00000   0.00000   0.00000   0.00000
  38       13F+3        0.00000   0.00000   0.00000   0.00000   0.00000
  39       13F-3        0.00000   0.00000   0.00000   0.00000   0.00008
  40       14F 0        0.00000   0.00000  -0.00005  -0.00056   0.00000
  41       14F+1        0.00000   0.00000   0.00000   0.00000   0.00000
  42       14F-1        0.00000   0.00000   0.00000   0.00000   0.00013
  43       14F+2        0.00000   0.00000  -0.00071  -0.00106   0.00000
  44       14F-2        0.00000   0.00000   0.00000   0.00000   0.00000
  45       14F+3        0.00000   0.00000   0.00000   0.00000   0.00000
  46       14F-3        0.00000   0.00000   0.00000   0.00000   0.00045
  47 2   C  1S         -0.00030   0.00000  -0.08584   0.04558   0.00000
  48        2S          0.00003   0.00000   0.19761  -0.12626   0.00000
  49        3S          0.00002   0.00000   0.04711  -0.02622   0.00000
  50        4S         -0.00013   0.00000   0.00301  -0.05541   0.00000
  51        5S         -0.00005   0.00000  -0.00429  -0.02436   0.00000
  52        6PX         0.00000   0.00000   0.00000   0.00000   0.00000
  53        6PY         0.00000  -0.00001   0.00000   0.00000   0.07200
  54        6PZ        -0.00001   0.00000   0.06624   0.05776   0.00000
  55        7PX         0.00000   0.00000   0.00000   0.00000   0.00000
  56        7PY         0.00000   0.00004   0.00000   0.00000   0.09739
  57        7PZ         0.00005   0.00000   0.05092   0.06709   0.00000
  58        8PX         0.00000   0.00000   0.00000   0.00000   0.00000
  59        8PY         0.00000  -0.00009   0.00000   0.00000  -0.00720
  60        8PZ        -0.00001   0.00000  -0.01992  -0.00361   0.00000
  61        9PX         0.00000   0.00000   0.00000   0.00000   0.00000
  62        9PY         0.00000  -0.00001   0.00000   0.00000   0.00605
  63        9PZ         0.00000   0.00000  -0.00761   0.00326   0.00000
  64       10D 0        0.00000   0.00000   0.01600   0.00263   0.00000
  65       10D+1        0.00000   0.00000   0.00000   0.00000   0.00000
  66       10D-1        0.00000   0.00000   0.00000   0.00000  -0.00578
  67       10D+2        0.00000   0.00000  -0.00262   0.00661   0.00000
  68       10D-2        0.00000   0.00000   0.00000   0.00000   0.00000
  69       11D 0       -0.00001   0.00000   0.00570  -0.00232   0.00000
  70       11D+1        0.00000   0.00000   0.00000   0.00000   0.00000
  71       11D-1        0.00000  -0.00007   0.00000   0.00000  -0.01935
  72       11D+2        0.00005   0.00000  -0.00327   0.01157   0.00000
  73       11D-2        0.00000   0.00000   0.00000   0.00000   0.00000
  74       12D 0       -0.00003   0.00000  -0.02050  -0.00796   0.00000
  75       12D+1        0.00000   0.00000   0.00000   0.00000   0.00000
  76       12D-1        0.00000  -0.00001   0.00000   0.00000   0.00438
  77       12D+2        0.00001   0.00000  -0.00121  -0.00275   0.00000
  78       12D-2        0.00000   0.00000   0.00000   0.00000   0.00000
  79       13F 0        0.00000   0.00000   0.00608  -0.00203   0.00000
  80       13F+1        0.00000   0.00000   0.00000   0.00000   0.00000
  81       13F-1        0.00000   0.00000   0.00000   0.00000   0.00234
  82       13F+2       -0.00001   0.00000   0.00259  -0.00428   0.00000
  83       13F-2        0.00000   0.00000   0.00000   0.00000   0.00000
  84       13F+3        0.00000   0.00000   0.00000   0.00000   0.00000
  85       13F-3        0.00000  -0.00001   0.00000   0.00000  -0.00266
  86       14F 0       -0.00003   0.00000  -0.00708  -0.00487   0.00000
  87       14F+1        0.00000   0.00000   0.00000   0.00000   0.00000
  88       14F-1        0.00000  -0.00002   0.00000   0.00000   0.00136
  89       14F+2       -0.00003   0.00000  -0.00297  -0.00588   0.00000
  90       14F-2        0.00000   0.00000   0.00000   0.00000   0.00000
  91       14F+3        0.00000   0.00000   0.00000   0.00000   0.00000
  92       14F-3        0.00000  -0.00001   0.00000   0.00000  -0.00001
  93 3   Cl 1S          0.70349   0.70675   0.01101  -0.04767  -0.05211
  94        2S          0.00698   0.00717  -0.03985   0.17880   0.19494
  95        3S          0.00011   0.00012   0.09035  -0.38044  -0.41762
  96        4S          0.00015   0.00016   0.01020  -0.04677  -0.05243
  97        5S          0.00001  -0.00006   0.04861  -0.22605  -0.25660
  98        6S          0.00001  -0.00007  -0.00334   0.01075   0.00589
  99        7PX         0.00000   0.00000   0.00000   0.00000   0.00000
 100        7PY        -0.00085  -0.00043  -0.00734   0.01513   0.00078
 101        7PZ        -0.00045  -0.00034  -0.00910   0.00168   0.00824
 102        8PX         0.00000   0.00000   0.00000   0.00000   0.00000
 103        8PY         0.00007   0.00006   0.01274  -0.02053   0.01573
 104        8PZ         0.00005   0.00004   0.02287   0.00988  -0.01114
 105        9PX         0.00000   0.00000   0.00000   0.00000   0.00000
 106        9PY        -0.00008  -0.00006   0.00596  -0.00965   0.00644
 107        9PZ        -0.00005  -0.00004   0.00984   0.00364  -0.00522
 108       10PX         0.00000   0.00000   0.00000   0.00000   0.00000
 109       10PY        -0.00001  -0.00007   0.00284   0.00218   0.01621
 110       10PZ        -0.00002  -0.00004   0.00247   0.00939  -0.00090
 111       11PX         0.00000   0.00000   0.00000   0.00000   0.00000
 112       11PY         0.00000  -0.00001  -0.00126   0.00378   0.00222
 113       11PZ         0.00000  -0.00001   0.00101   0.00165   0.00263
 114       12D 0        0.00000   0.00000   0.00039   0.00146  -0.00094
 115       12D+1        0.00000   0.00000   0.00000   0.00000   0.00000
 116       12D-1        0.00000   0.00001   0.00346  -0.00586  -0.00594
 117       12D+2        0.00000   0.00000  -0.00265   0.00550   0.00303
 118       12D-2        0.00000   0.00000   0.00000   0.00000   0.00000
 119       13D 0        0.00000   0.00000  -0.00047   0.00212  -0.00246
 120       13D+1        0.00000   0.00000   0.00000   0.00000   0.00000
 121       13D-1        0.00003   0.00002   0.00379  -0.00511  -0.00486
 122       13D+2       -0.00001  -0.00001  -0.00130   0.00603   0.00132
 123       13D-2        0.00000   0.00000   0.00000   0.00000   0.00000
 124       14D 0        0.00000   0.00000   0.00007  -0.00054  -0.00070
 125       14D+1        0.00000   0.00000   0.00000   0.00000   0.00000
 126       14D-1       -0.00001  -0.00002  -0.00198   0.00141   0.00192
 127       14D+2        0.00001   0.00002  -0.00088  -0.00195  -0.00297
 128       14D-2        0.00000   0.00000   0.00000   0.00000   0.00000
 129       15F 0        0.00000   0.00000  -0.00031   0.00140   0.00085
 130       15F+1        0.00000   0.00000   0.00000   0.00000   0.00000
 131       15F-1        0.00000   0.00000   0.00039  -0.00023  -0.00163
 132       15F+2       -0.00001   0.00000  -0.00074   0.00221   0.00221
 133       15F-2        0.00000   0.00000   0.00000   0.00000   0.00000
 134       15F+3        0.00000   0.00000   0.00000   0.00000   0.00000
 135       15F-3        0.00000   0.00000  -0.00058   0.00182   0.00084
 136       16F 0        0.00000   0.00000  -0.00046   0.00010  -0.00049
 137       16F+1        0.00000   0.00000   0.00000   0.00000   0.00000
 138       16F-1        0.00000   0.00000  -0.00025   0.00024  -0.00025
 139       16F+2        0.00000   0.00000   0.00015   0.00022  -0.00101
 140       16F-2        0.00000   0.00000   0.00000   0.00000   0.00000
 141       16F+3        0.00000   0.00000   0.00000   0.00000   0.00000
 142       16F-3        0.00000   0.00000   0.00098   0.00008  -0.00073
 143 4   Cl 1S          0.70680  -0.70344   0.01101  -0.04767   0.05211
 144        2S          0.00701  -0.00714  -0.03985   0.17880  -0.19494
 145        3S          0.00011  -0.00012   0.09035  -0.38044   0.41762
 146        4S          0.00015  -0.00016   0.01020  -0.04677   0.05243
 147        5S          0.00001   0.00006   0.04861  -0.22605   0.25660
 148        6S          0.00001   0.00007  -0.00334   0.01075  -0.00589
 149        7PX         0.00000   0.00000   0.00000   0.00000   0.00000
 150        7PY         0.00085  -0.00042   0.00734  -0.01513   0.00078
 151        7PZ        -0.00045   0.00034  -0.00910   0.00168  -0.00824
 152        8PX         0.00000   0.00000   0.00000   0.00000   0.00000
 153        8PY        -0.00007   0.00006  -0.01274   0.02053   0.01573
 154        8PZ         0.00005  -0.00004   0.02287   0.00988   0.01114
 155        9PX         0.00000   0.00000   0.00000   0.00000   0.00000
 156        9PY         0.00008  -0.00006  -0.00596   0.00965   0.00644
 157        9PZ        -0.00005   0.00004   0.00984   0.00364   0.00522
 158       10PX         0.00000   0.00000   0.00000   0.00000   0.00000
 159       10PY         0.00001  -0.00007  -0.00284  -0.00218   0.01621
 160       10PZ        -0.00002   0.00004   0.00247   0.00939   0.00090
 161       11PX         0.00000   0.00000   0.00000   0.00000   0.00000
 162       11PY         0.00000  -0.00001   0.00126  -0.00378   0.00222
 163       11PZ         0.00000   0.00000   0.00101   0.00165  -0.00263
 164       12D 0        0.00000   0.00000   0.00039   0.00146   0.00094
 165       12D+1        0.00000   0.00000   0.00000   0.00000   0.00000
 166       12D-1        0.00000   0.00001  -0.00346   0.00586  -0.00594
 167       12D+2        0.00000   0.00000  -0.00265   0.00550  -0.00303
 168       12D-2        0.00000   0.00000   0.00000   0.00000   0.00000
 169       13D 0        0.00000   0.00000  -0.00047   0.00212   0.00246
 170       13D+1        0.00000   0.00000   0.00000   0.00000   0.00000
 171       13D-1       -0.00003   0.00002  -0.00379   0.00511  -0.00486
 172       13D+2       -0.00001   0.00001  -0.00130   0.00603  -0.00132
 173       13D-2        0.00000   0.00000   0.00000   0.00000   0.00000
 174       14D 0        0.00000   0.00000   0.00007  -0.00054   0.00070
 175       14D+1        0.00000   0.00000   0.00000   0.00000   0.00000
 176       14D-1        0.00001  -0.00002   0.00198  -0.00141   0.00192
 177       14D+2        0.00001  -0.00002  -0.00088  -0.00195   0.00297
 178       14D-2        0.00000   0.00000   0.00000   0.00000   0.00000
 179       15F 0        0.00000   0.00000  -0.00031   0.00140  -0.00085
 180       15F+1        0.00000   0.00000   0.00000   0.00000   0.00000
 181       15F-1        0.00000   0.00000  -0.00039   0.00023  -0.00163
 182       15F+2       -0.00001   0.00000  -0.00074   0.00221  -0.00221
 183       15F-2        0.00000   0.00000   0.00000   0.00000   0.00000
 184       15F+3        0.00000   0.00000   0.00000   0.00000   0.00000
 185       15F-3        0.00000   0.00000   0.00058  -0.00182   0.00084
 186       16F 0        0.00000   0.00000  -0.00046   0.00010   0.00049
 187       16F+1        0.00000   0.00000   0.00000   0.00000   0.00000
 188       16F-1        0.00000   0.00000   0.00025  -0.00024  -0.00025
 189       16F+2        0.00000   0.00000   0.00015   0.00022   0.00101
 190       16F-2        0.00000   0.00000   0.00000   0.00000   0.00000
 191       16F+3        0.00000   0.00000   0.00000   0.00000   0.00000
 192       16F-3        0.00000   0.00000  -0.00098  -0.00008  -0.00073
                          16        17        18        19        20
     Eigenvalues --     1.96327   1.95809   1.95160   1.94917   1.94745
   1 1   O  1S          0.04021   0.00000  -0.00851   0.00000   0.00000
   2        2S         -0.13050   0.00000   0.02202   0.00000   0.00000
   3        3S         -0.04256   0.00000   0.00687   0.00000   0.00000
   4        4S         -0.24324   0.00000   0.02467   0.00000   0.00000
   5        5S         -0.06046   0.00000   0.02455   0.00000   0.00000
   6        6PX         0.00000   0.00000   0.00000   0.03214   0.00000
   7        6PY         0.00000   0.29830   0.00000   0.00000   0.11040
   8        6PZ        -0.29826   0.00000  -0.00693   0.00000   0.00000
   9        7PX         0.00000   0.00000   0.00000   0.04057   0.00000
  10        7PY         0.00000   0.37053   0.00000   0.00000   0.13486
  11        7PZ        -0.35203   0.00000  -0.00991   0.00000   0.00000
  12        8PX         0.00000   0.00000   0.00000   0.02077   0.00000
  13        8PY         0.00000   0.27054   0.00000   0.00000   0.09367
  14        8PZ        -0.15099   0.00000   0.00012   0.00000   0.00000
  15        9PX         0.00000   0.00000   0.00000  -0.01177   0.00000
  16        9PY         0.00000   0.03738   0.00000   0.00000   0.01486
  17        9PZ         0.00138   0.00000   0.00079   0.00000   0.00000
  18       10D 0        0.01337   0.00000   0.00019   0.00000   0.00000
  19       10D+1        0.00000   0.00000   0.00000  -0.00336   0.00000
  20       10D-1        0.00000  -0.00922   0.00000   0.00000  -0.00203
  21       10D+2       -0.00002   0.00000   0.00059   0.00000   0.00000
  22       10D-2        0.00000   0.00000   0.00000   0.00000   0.00000
  23       11D 0        0.02645   0.00000   0.00136   0.00000   0.00000
  24       11D+1        0.00000   0.00000   0.00000  -0.00924   0.00000
  25       11D-1        0.00000  -0.02661   0.00000   0.00000  -0.00253
  26       11D+2        0.00120   0.00000   0.00047   0.00000   0.00000
  27       11D-2        0.00000   0.00000   0.00000   0.00000   0.00000
  28       12D 0       -0.00404   0.00000  -0.00108   0.00000   0.00000
  29       12D+1        0.00000   0.00000   0.00000  -0.00716   0.00000
  30       12D-1        0.00000  -0.01710   0.00000   0.00000  -0.00135
  31       12D+2        0.00229   0.00000   0.00224   0.00000   0.00000
  32       12D-2        0.00000   0.00000   0.00000   0.00000   0.00000
  33       13F 0       -0.00478   0.00000  -0.00004   0.00000   0.00000
  34       13F+1        0.00000   0.00000   0.00000   0.00177   0.00000
  35       13F-1        0.00000   0.00571   0.00000   0.00000   0.00095
  36       13F+2       -0.00068   0.00000  -0.00016   0.00000   0.00000
  37       13F-2        0.00000   0.00000   0.00000   0.00000   0.00000
  38       13F+3        0.00000   0.00000   0.00000   0.00000   0.00000
  39       13F-3        0.00000   0.00090   0.00000   0.00000   0.00045
  40       14F 0       -0.00405   0.00000  -0.00023   0.00000   0.00000
  41       14F+1        0.00000   0.00000   0.00000   0.00112   0.00000
  42       14F-1        0.00000   0.00419   0.00000   0.00000  -0.00011
  43       14F+2       -0.00166   0.00000   0.00032   0.00000   0.00000
  44       14F-2        0.00000   0.00000   0.00000   0.00000   0.00000
  45       14F+3        0.00000   0.00000   0.00000   0.00076   0.00000
  46       14F-3        0.00000   0.00104   0.00000   0.00000   0.00013
  47 2   C  1S         -0.11236   0.00000  -0.03563   0.00000   0.00000
  48        2S          0.30632   0.00000   0.10012   0.00000   0.00000
  49        3S          0.08015   0.00000   0.02476   0.00000   0.00000
  50        4S          0.10369   0.00000   0.05196   0.00000   0.00000
  51        5S          0.00910   0.00000   0.01325   0.00000   0.00000
  52        6PX         0.00000   0.00000   0.00000   0.11303   0.00000
  53        6PY         0.00000   0.14591   0.00000   0.00000   0.01545
  54        6PZ         0.15011   0.00000  -0.04915   0.00000   0.00000
  55        7PX         0.00000   0.00000   0.00000   0.15547   0.00000
  56        7PY         0.00000   0.18882   0.00000   0.00000   0.02343
  57        7PZ         0.15878   0.00000  -0.07103   0.00000   0.00000
  58        8PX         0.00000   0.00000   0.00000   0.04608   0.00000
  59        8PY         0.00000   0.01610   0.00000   0.00000   0.00507
  60        8PZ        -0.00355   0.00000  -0.02649   0.00000   0.00000
  61        9PX         0.00000   0.00000   0.00000   0.01292   0.00000
  62        9PY         0.00000  -0.00872   0.00000   0.00000  -0.00976
  63        9PZ        -0.00260   0.00000  -0.01092   0.00000   0.00000
  64       10D 0        0.01635   0.00000   0.01075   0.00000   0.00000
  65       10D+1        0.00000   0.00000   0.00000  -0.00421   0.00000
  66       10D-1        0.00000   0.02122   0.00000   0.00000   0.00412
  67       10D+2        0.00015   0.00000   0.00399   0.00000   0.00000
  68       10D-2        0.00000   0.00000   0.00000   0.00000   0.00000
  69       11D 0        0.00104   0.00000   0.03294   0.00000   0.00000
  70       11D+1        0.00000   0.00000   0.00000  -0.02674   0.00000
  71       11D-1        0.00000   0.01954   0.00000   0.00000   0.00293
  72       11D+2       -0.00424   0.00000   0.01556   0.00000   0.00000
  73       11D-2        0.00000   0.00000   0.00000   0.00000   0.00000
  74       12D 0       -0.00011   0.00000  -0.02322   0.00000   0.00000
  75       12D+1        0.00000   0.00000   0.00000  -0.00833   0.00000
  76       12D-1        0.00000  -0.01590   0.00000   0.00000   0.01410
  77       12D+2        0.00422   0.00000  -0.01746   0.00000   0.00000
  78       12D-2        0.00000   0.00000   0.00000   0.00000   0.00000
  79       13F 0        0.00945   0.00000  -0.00071   0.00000   0.00000
  80       13F+1        0.00000   0.00000   0.00000   0.00263   0.00000
  81       13F-1        0.00000   0.00518   0.00000   0.00000   0.00859
  82       13F+2        0.00166   0.00000   0.00173   0.00000   0.00000
  83       13F-2        0.00000   0.00000   0.00000   0.00000   0.00000
  84       13F+3        0.00000   0.00000   0.00000  -0.00482   0.00000
  85       13F-3        0.00000  -0.00291   0.00000   0.00000   0.00151
  86       14F 0       -0.01085   0.00000  -0.00457   0.00000   0.00000
  87       14F+1        0.00000   0.00000   0.00000  -0.00049   0.00000
  88       14F-1        0.00000   0.00150   0.00000   0.00000   0.01437
  89       14F+2       -0.00341   0.00000  -0.00099   0.00000   0.00000
  90       14F-2        0.00000   0.00000   0.00000   0.00000   0.00000
  91       14F+3        0.00000   0.00000   0.00000  -0.00316   0.00000
  92       14F-3        0.00000   0.00067   0.00000   0.00000   0.00345
  93 3   Cl 1S         -0.01176   0.01528  -0.01045   0.00000  -0.00129
  94        2S          0.04564  -0.05819   0.03970   0.00000   0.00507
  95        3S         -0.09253   0.12469  -0.08618   0.00000  -0.01006
  96        4S         -0.01236   0.01727  -0.01347   0.00000  -0.00208
  97        5S         -0.07852   0.12041  -0.08111   0.00000  -0.01061
  98        6S         -0.00819   0.00850  -0.02259   0.00000  -0.01227
  99        7PX         0.00000   0.00000   0.00000  -0.14724   0.00000
 100        7PY        -0.00286   0.00461  -0.10695   0.00000   0.09034
 101        7PZ        -0.01326   0.04326   0.10906   0.00000  -0.14055
 102        8PX         0.00000   0.00000   0.00000   0.34696   0.00000
 103        8PY         0.00323   0.00208   0.24701   0.00000  -0.21117
 104        8PZ         0.02887  -0.09429  -0.26051   0.00000   0.33333
 105        9PX         0.00000   0.00000   0.00000   0.16199   0.00000
 106        9PY         0.00342  -0.00331   0.11669   0.00000  -0.10224
 107        9PZ         0.01502  -0.04727  -0.12467   0.00000   0.15807
 108       10PX         0.00000   0.00000   0.00000   0.19487   0.00000
 109       10PY        -0.01552   0.03058   0.12753   0.00000  -0.13473
 110       10PZ         0.00450  -0.03690  -0.17682   0.00000   0.20891
 111       11PX         0.00000   0.00000   0.00000   0.00075   0.00000
 112       11PY        -0.00082   0.00446   0.00038   0.00000  -0.00661
 113       11PZ         0.00003   0.00272  -0.00755   0.00000   0.01059
 114       12D 0        0.00312  -0.00564  -0.00695   0.00000   0.00099
 115       12D+1        0.00000   0.00000   0.00000   0.00565   0.00000
 116       12D-1        0.00535  -0.01037   0.00149   0.00000  -0.00131
 117       12D+2       -0.00083   0.00445  -0.00939   0.00000   0.00064
 118       12D-2        0.00000   0.00000   0.00000   0.01072   0.00000
 119       13D 0        0.00212  -0.00861  -0.00849   0.00000  -0.00069
 120       13D+1        0.00000   0.00000   0.00000   0.00836   0.00000
 121       13D-1        0.00507  -0.00681   0.00102   0.00000  -0.00077
 122       13D+2        0.00189   0.00045  -0.01146   0.00000  -0.00158
 123       13D-2        0.00000   0.00000   0.00000   0.01644   0.00000
 124       14D 0        0.00234  -0.00598  -0.00798   0.00000   0.00151
 125       14D+1        0.00000   0.00000   0.00000   0.00182   0.00000
 126       14D-1       -0.00035  -0.00160  -0.00336   0.00000   0.00150
 127       14D+2        0.00315  -0.00298  -0.00568   0.00000   0.00044
 128       14D-2        0.00000   0.00000   0.00000   0.00521   0.00000
 129       15F 0        0.00038  -0.00023  -0.00194   0.00000   0.00080
 130       15F+1        0.00000   0.00000   0.00000   0.00053   0.00000
 131       15F-1        0.00138  -0.00359  -0.00400   0.00000   0.00274
 132       15F+2       -0.00024   0.00231  -0.00128   0.00000   0.00029
 133       15F-2        0.00000   0.00000   0.00000   0.00441   0.00000
 134       15F+3        0.00000   0.00000   0.00000  -0.00434   0.00000
 135       15F-3        0.00037   0.00051  -0.00320   0.00000   0.00092
 136       16F 0       -0.00165  -0.00135  -0.00047   0.00000  -0.00046
 137       16F+1        0.00000   0.00000   0.00000  -0.00046   0.00000
 138       16F-1       -0.00014  -0.00050  -0.00207   0.00000   0.00149
 139       16F+2       -0.00025  -0.00213  -0.00054   0.00000  -0.00058
 140       16F-2        0.00000   0.00000   0.00000   0.00220   0.00000
 141       16F+3        0.00000   0.00000   0.00000  -0.00241   0.00000
 142       16F-3        0.00120  -0.00161  -0.00110   0.00000  -0.00056
 143 4   Cl 1S         -0.01176  -0.01528  -0.01045   0.00000   0.00129
 144        2S          0.04564   0.05819   0.03970   0.00000  -0.00507
 145        3S         -0.09253  -0.12469  -0.08618   0.00000   0.01006
 146        4S         -0.01236  -0.01727  -0.01347   0.00000   0.00208
 147        5S         -0.07852  -0.12041  -0.08111   0.00000   0.01061
 148        6S         -0.00819  -0.00850  -0.02259   0.00000   0.01227
 149        7PX         0.00000   0.00000   0.00000  -0.14724   0.00000
 150        7PY         0.00286   0.00461   0.10695   0.00000   0.09034
 151        7PZ        -0.01326  -0.04326   0.10906   0.00000   0.14055
 152        8PX         0.00000   0.00000   0.00000   0.34696   0.00000
 153        8PY        -0.00323   0.00208  -0.24701   0.00000  -0.21117
 154        8PZ         0.02887   0.09429  -0.26051   0.00000  -0.33333
 155        9PX         0.00000   0.00000   0.00000   0.16199   0.00000
 156        9PY        -0.00342  -0.00331  -0.11669   0.00000  -0.10224
 157        9PZ         0.01502   0.04727  -0.12467   0.00000  -0.15807
 158       10PX         0.00000   0.00000   0.00000   0.19487   0.00000
 159       10PY         0.01552   0.03058  -0.12753   0.00000  -0.13473
 160       10PZ         0.00450   0.03690  -0.17682   0.00000  -0.20891
 161       11PX         0.00000   0.00000   0.00000   0.00075   0.00000
 162       11PY         0.00082   0.00446  -0.00038   0.00000  -0.00661
 163       11PZ         0.00003  -0.00272  -0.00755   0.00000  -0.01059
 164       12D 0        0.00312   0.00564  -0.00695   0.00000  -0.00099
 165       12D+1        0.00000   0.00000   0.00000   0.00565   0.00000
 166       12D-1       -0.00535  -0.01037  -0.00149   0.00000  -0.00131
 167       12D+2       -0.00083  -0.00445  -0.00939   0.00000  -0.00064
 168       12D-2        0.00000   0.00000   0.00000  -0.01072   0.00000
 169       13D 0        0.00212   0.00861  -0.00849   0.00000   0.00069
 170       13D+1        0.00000   0.00000   0.00000   0.00836   0.00000
 171       13D-1       -0.00507  -0.00681  -0.00102   0.00000  -0.00077
 172       13D+2        0.00189  -0.00045  -0.01146   0.00000   0.00158
 173       13D-2        0.00000   0.00000   0.00000  -0.01644   0.00000
 174       14D 0        0.00234   0.00598  -0.00798   0.00000  -0.00151
 175       14D+1        0.00000   0.00000   0.00000   0.00182   0.00000
 176       14D-1        0.00035  -0.00160   0.00336   0.00000   0.00150
 177       14D+2        0.00315   0.00298  -0.00568   0.00000  -0.00044
 178       14D-2        0.00000   0.00000   0.00000  -0.00521   0.00000
 179       15F 0        0.00038   0.00023  -0.00194   0.00000  -0.00080
 180       15F+1        0.00000   0.00000   0.00000   0.00053   0.00000
 181       15F-1       -0.00138  -0.00359   0.00400   0.00000   0.00274
 182       15F+2       -0.00024  -0.00231  -0.00128   0.00000  -0.00029
 183       15F-2        0.00000   0.00000   0.00000  -0.00441   0.00000
 184       15F+3        0.00000   0.00000   0.00000  -0.00434   0.00000
 185       15F-3       -0.00037   0.00051   0.00320   0.00000   0.00092
 186       16F 0       -0.00165   0.00135  -0.00047   0.00000   0.00046
 187       16F+1        0.00000   0.00000   0.00000  -0.00046   0.00000
 188       16F-1        0.00014  -0.00050   0.00207   0.00000   0.00149
 189       16F+2       -0.00025   0.00213  -0.00054   0.00000   0.00058
 190       16F-2        0.00000   0.00000   0.00000  -0.00220   0.00000
 191       16F+3        0.00000   0.00000   0.00000  -0.00241   0.00000
 192       16F-3       -0.00120  -0.00161   0.00110   0.00000  -0.00056
                          21        22        23        24        25
     Eigenvalues --     1.94740   1.94729   1.93696   1.93221   0.06552
   1 1   O  1S         -0.02778   0.00000   0.00000   0.00000   0.00000
   2        2S          0.07522   0.00000   0.00000   0.00000   0.00000
   3        3S          0.02145   0.00000   0.00000   0.00000   0.00000
   4        4S          0.03075   0.00000   0.00000   0.00000   0.00000
   5        5S          0.00111   0.00000   0.00000   0.00000   0.00000
   6        6PX         0.00000   0.00000   0.00000   0.29467  -0.34537
   7        6PY         0.00000   0.00000  -0.14098   0.00000   0.00000
   8        6PZ        -0.09891   0.00000   0.00000   0.00000   0.00000
   9        7PX         0.00000   0.00000   0.00000   0.36919  -0.39767
  10        7PY         0.00000   0.00000  -0.17539   0.00000   0.00000
  11        7PZ        -0.12022   0.00000   0.00000   0.00000   0.00000
  12        8PX         0.00000   0.00000   0.00000   0.24596  -0.07505
  13        8PY         0.00000   0.00000  -0.12139   0.00000   0.00000
  14        8PZ        -0.03678   0.00000   0.00000   0.00000   0.00000
  15        9PX         0.00000   0.00000   0.00000   0.02566  -0.00501
  16        9PY         0.00000   0.00000  -0.02181   0.00000   0.00000
  17        9PZ         0.00368   0.00000   0.00000   0.00000   0.00000
  18       10D 0        0.00465   0.00000   0.00000   0.00000   0.00000
  19       10D+1        0.00000   0.00000   0.00000  -0.01053  -0.01344
  20       10D-1        0.00000   0.00000   0.00020   0.00000   0.00000
  21       10D+2        0.00003   0.00000   0.00000   0.00000   0.00000
  22       10D-2        0.00000  -0.00039   0.00000   0.00000   0.00000
  23       11D 0        0.00884   0.00000   0.00000   0.00000   0.00000
  24       11D+1        0.00000   0.00000   0.00000  -0.02842  -0.01066
  25       11D-1        0.00000   0.00000  -0.00014   0.00000   0.00000
  26       11D+2        0.00211   0.00000   0.00000   0.00000   0.00000
  27       11D-2        0.00000  -0.00179   0.00000   0.00000   0.00000
  28       12D 0       -0.01240   0.00000   0.00000   0.00000   0.00000
  29       12D+1        0.00000   0.00000   0.00000  -0.01230   0.01727
  30       12D-1        0.00000   0.00000  -0.00745   0.00000   0.00000
  31       12D+2        0.00227   0.00000   0.00000   0.00000   0.00000
  32       12D-2        0.00000  -0.00390   0.00000   0.00000   0.00000
  33       13F 0       -0.00181   0.00000   0.00000   0.00000   0.00000
  34       13F+1        0.00000   0.00000   0.00000   0.00547   0.00385
  35       13F-1        0.00000   0.00000   0.00024   0.00000   0.00000
  36       13F+2       -0.00048   0.00000   0.00000   0.00000   0.00000
  37       13F-2        0.00000   0.00035   0.00000   0.00000   0.00000
  38       13F+3        0.00000   0.00000   0.00000   0.00104  -0.00249
  39       13F-3        0.00000   0.00000  -0.00044   0.00000   0.00000
  40       14F 0       -0.00191   0.00000   0.00000   0.00000   0.00000
  41       14F+1        0.00000   0.00000   0.00000   0.00343  -0.00553
  42       14F-1        0.00000   0.00000  -0.00078   0.00000   0.00000
  43       14F+2       -0.00234   0.00000   0.00000   0.00000   0.00000
  44       14F-2        0.00000   0.00122   0.00000   0.00000   0.00000
  45       14F+3        0.00000   0.00000   0.00000   0.00088  -0.00067
  46       14F-3        0.00000   0.00000  -0.00019   0.00000   0.00000
  47 2   C  1S          0.07771   0.00000   0.00000   0.00000   0.00000
  48        2S         -0.22201   0.00000   0.00000   0.00000   0.00000
  49        3S         -0.04785   0.00000   0.00000   0.00000   0.00000
  50        4S         -0.16518   0.00000   0.00000   0.00000   0.00000
  51        5S         -0.02045   0.00000   0.00000   0.00000   0.00000
  52        6PX         0.00000   0.00000   0.00000   0.17202   0.30794
  53        6PY         0.00000   0.00000   0.13830   0.00000   0.00000
  54        6PZ         0.17227   0.00000   0.00000   0.00000   0.00000
  55        7PX         0.00000   0.00000   0.00000   0.21779   0.46899
  56        7PY         0.00000   0.00000   0.19714   0.00000   0.00000
  57        7PZ         0.22065   0.00000   0.00000   0.00000   0.00000
  58        8PX         0.00000   0.00000   0.00000   0.08149   0.15592
  59        8PY         0.00000   0.00000   0.02792   0.00000   0.00000
  60        8PZ         0.03303   0.00000   0.00000   0.00000   0.00000
  61        9PX         0.00000   0.00000   0.00000  -0.00205   0.01097
  62        9PY         0.00000   0.00000  -0.00022   0.00000   0.00000
  63        9PZ        -0.00729   0.00000   0.00000   0.00000   0.00000
  64       10D 0        0.01295   0.00000   0.00000   0.00000   0.00000
  65       10D+1        0.00000   0.00000   0.00000   0.02438  -0.00025
[...]
  74       12D 0        0.00000   1.24856   0.00000   0.00000   3.20485
  75       12D+1        0.00000   0.00000   0.71668   0.00000   0.00000
  76       12D-1        7.04331   0.00000   0.00000  -2.46698   0.00000
  77       12D+2        0.00000   1.44599   0.00000   0.00000   1.52946
  78       12D-2        0.00000   0.00000   0.00000   0.00000   0.00000
  79       13F 0        0.00000  -0.05484   0.00000   0.00000   0.06107
  80       13F+1        0.00000   0.00000  -0.09302   0.00000   0.00000
  81       13F-1       -0.02194   0.00000   0.00000  -0.07744   0.00000
  82       13F+2        0.00000  -0.03863   0.00000   0.00000  -0.01205
  83       13F-2        0.00000   0.00000   0.00000   0.00000   0.00000
  84       13F+3        0.00000   0.00000   0.03756   0.00000   0.00000
  85       13F-3       -0.00592   0.00000   0.00000   0.00943   0.00000
  86       14F 0        0.00000   0.11459   0.00000   0.00000  -0.04891
  87       14F+1        0.00000   0.00000  -0.17934   0.00000   0.00000
  88       14F-1        0.43906   0.00000   0.00000  -0.17125   0.00000
  89       14F+2        0.00000   0.26814   0.00000   0.00000   0.23790
  90       14F-2        0.00000   0.00000   0.00000   0.00000   0.00000
  91       14F+3        0.00000   0.00000   0.01692   0.00000   0.00000
  92       14F-3        0.18993   0.00000   0.00000  -0.18297   0.00000
  93 3   Cl 1S          0.02858  -0.01502   0.00000  -0.01291   0.00771
  94        2S          0.45808  -0.22592   0.00000  -0.17147   0.13280
  95        3S          1.15119  -0.59074   0.00000  -0.49430   0.31352
  96        4S         -0.22745   0.09590   0.00000  -0.00178  -0.10214
  97        5S         -6.73192   1.76782   0.00000   3.78596  -0.82922
  98        6S         -2.79402   1.59155   0.00000  12.76765   4.81429
  99        7PX         0.00000   0.00000  -0.01664   0.00000   0.00000
 100        7PY         0.00648   0.00310   0.00000  -0.01301  -0.00511
 101        7PZ        -0.01109  -0.00799   0.00000   0.00109  -0.01701
 102        8PX         0.00000   0.00000  -0.21190   0.00000   0.00000
 103        8PY        -0.00789   0.04684   0.00000  -0.22037  -0.08363
 104        8PZ        -0.28168  -0.09675   0.00000   0.00143  -0.26715
 105        9PX         0.00000   0.00000   0.06456   0.00000   0.00000
 106        9PY        -0.01828  -0.02794   0.00000   0.04899   0.01829
 107        9PZ         0.04497   0.01531   0.00000  -0.00715   0.06338
 108       10PX         0.00000   0.00000   0.92108   0.00000   0.00000
 109       10PY        -3.29338   0.46094   0.00000   4.79033  -0.76640
 110       10PZ        -1.05220   1.94067   0.00000   3.43699   1.52983
 111       11PX         0.00000   0.00000  -2.24747   0.00000   0.00000
 112       11PY        -0.48252  -0.65975   0.00000   2.50840   0.89442
 113       11PZ         0.29573  -2.01459   0.00000   1.52642  -1.06614
 114       12D 0        0.00651  -0.04149   0.00000  -0.02147  -0.01820
 115       12D+1        0.00000   0.00000  -0.02641   0.00000   0.00000
 116       12D-1        0.05108  -0.08385   0.00000   0.01902   0.00760
 117       12D+2       -0.01108   0.07000   0.00000  -0.03820   0.00372
 118       12D-2        0.00000   0.00000  -0.00996   0.00000   0.00000
 119       13D 0       -0.11454   0.16934   0.00000   0.12512   0.07447
 120       13D+1        0.00000   0.00000   0.08272   0.00000   0.00000
 121       13D-1       -0.38457   0.36954   0.00000   0.04437  -0.04669
 122       13D+2        0.12883  -0.28433   0.00000   0.09320   0.01820
 123       13D-2        0.00000   0.00000   0.03659   0.00000   0.00000
 124       14D 0        0.57435   0.26257   0.00000   0.03302   0.27790
 125       14D+1        0.00000   0.00000  -0.07448   0.00000   0.00000
 126       14D-1       -0.16669   0.13808   0.00000   1.56795   0.15434
 127       14D+2        0.24860   0.36077   0.00000  -1.10737   0.45914
 128       14D-2        0.00000   0.00000   0.18659   0.00000   0.00000
 129       15F 0       -0.03288  -0.00040   0.00000   0.00779   0.00273
 130       15F+1        0.00000   0.00000  -0.00542   0.00000   0.00000
 131       15F-1       -0.00535  -0.04213   0.00000  -0.04599   0.01455
 132       15F+2       -0.00151   0.03001   0.00000   0.01230   0.00146
 133       15F-2        0.00000   0.00000  -0.01667   0.00000   0.00000
 134       15F+3        0.00000   0.00000   0.04242   0.00000   0.00000
 135       15F-3        0.03110  -0.00059   0.00000  -0.00871  -0.00174
 136       16F 0        0.13585   0.00266   0.00000  -0.03745  -0.00362
 137       16F+1        0.00000   0.00000   0.00051   0.00000   0.00000
 138       16F-1       -0.05362   0.18097   0.00000   0.18369  -0.01214
 139       16F+2        0.09979  -0.13527   0.00000  -0.10990   0.01629
 140       16F-2        0.00000   0.00000   0.03740   0.00000   0.00000
 141       16F+3        0.00000   0.00000  -0.10215   0.00000   0.00000
 142       16F-3       -0.02955  -0.03965   0.00000  -0.02332   0.04608
 143 4   Cl 1S         -0.02858  -0.01502   0.00000   0.01291   0.00771
 144        2S         -0.45808  -0.22592   0.00000   0.17147   0.13280
 145        3S         -1.15119  -0.59074   0.00000   0.49430   0.31352
 146        4S          0.22745   0.09590   0.00000   0.00178  -0.10214
 147        5S          6.73192   1.76782   0.00000  -3.78596  -0.82922
 148        6S          2.79402   1.59155   0.00000 -12.76765   4.81429
 149        7PX         0.00000   0.00000  -0.01664   0.00000   0.00000
 150        7PY         0.00648  -0.00310   0.00000  -0.01301   0.00511
 151        7PZ         0.01109  -0.00799   0.00000  -0.00109  -0.01701
 152        8PX         0.00000   0.00000  -0.21190   0.00000   0.00000
 153        8PY        -0.00789  -0.04684   0.00000  -0.22037   0.08363
 154        8PZ         0.28168  -0.09675   0.00000  -0.00143  -0.26715
 155        9PX         0.00000   0.00000   0.06456   0.00000   0.00000
 156        9PY        -0.01828   0.02794   0.00000   0.04899  -0.01829
 157        9PZ        -0.04497   0.01531   0.00000   0.00715   0.06338
 158       10PX         0.00000   0.00000   0.92108   0.00000   0.00000
 159       10PY        -3.29338  -0.46094   0.00000   4.79033   0.76640
 160       10PZ         1.05220   1.94067   0.00000  -3.43699   1.52983
 161       11PX         0.00000   0.00000  -2.24747   0.00000   0.00000
 162       11PY        -0.48252   0.65975   0.00000   2.50840  -0.89442
 163       11PZ        -0.29573  -2.01459   0.00000  -1.52642  -1.06614
 164       12D 0       -0.00651  -0.04149   0.00000   0.02147  -0.01820
 165       12D+1        0.00000   0.00000  -0.02641   0.00000   0.00000
 166       12D-1        0.05108   0.08385   0.00000   0.01902  -0.00760
 167       12D+2        0.01108   0.07000   0.00000   0.03820   0.00372
 168       12D-2        0.00000   0.00000   0.00996   0.00000   0.00000
 169       13D 0        0.11454   0.16934   0.00000  -0.12512   0.07447
 170       13D+1        0.00000   0.00000   0.08272   0.00000   0.00000
 171       13D-1       -0.38457  -0.36954   0.00000   0.04437   0.04669
 172       13D+2       -0.12883  -0.28433   0.00000  -0.09320   0.01820
 173       13D-2        0.00000   0.00000  -0.03659   0.00000   0.00000
 174       14D 0       -0.57435   0.26257   0.00000  -0.03302   0.27790
 175       14D+1        0.00000   0.00000  -0.07448   0.00000   0.00000
 176       14D-1       -0.16669  -0.13808   0.00000   1.56795  -0.15434
 177       14D+2       -0.24860   0.36077   0.00000   1.10737   0.45914
 178       14D-2        0.00000   0.00000  -0.18659   0.00000   0.00000
 179       15F 0        0.03288  -0.00040   0.00000  -0.00779   0.00273
 180       15F+1        0.00000   0.00000  -0.00542   0.00000   0.00000
 181       15F-1       -0.00535   0.04213   0.00000  -0.04599  -0.01455
 182       15F+2        0.00151   0.03001   0.00000  -0.01230   0.00146
 183       15F-2        0.00000   0.00000   0.01667   0.00000   0.00000
 184       15F+3        0.00000   0.00000   0.04242   0.00000   0.00000
 185       15F-3        0.03110   0.00059   0.00000  -0.00871   0.00174
 186       16F 0       -0.13585   0.00266   0.00000   0.03745  -0.00362
 187       16F+1        0.00000   0.00000   0.00051   0.00000   0.00000
 188       16F-1       -0.05362  -0.18097   0.00000   0.18369   0.01214
 189       16F+2       -0.09979  -0.13527   0.00000   0.10990   0.01629
 190       16F-2        0.00000   0.00000  -0.03740   0.00000   0.00000
 191       16F+3        0.00000   0.00000  -0.10215   0.00000   0.00000
 192       16F-3       -0.02955   0.03965   0.00000  -0.02332  -0.04608
                         191       192
     Eigenvalues --     0.00000   0.00000
   1 1   O  1S          0.00000   0.07174
   2        2S          0.00000   0.36764
   3        3S          0.00000  -0.01432
   4        4S          0.00000  -3.07025
   5        5S          0.00000  -8.59308
   6        6PX         0.00000   0.00000
   7        6PY         0.00679   0.00000
   8        6PZ         0.00000   0.00303
   9        7PX         0.00000   0.00000
  10        7PY         0.01345   0.00000
  11        7PZ         0.00000  -0.00097
  12        8PX         0.00000   0.00000
  13        8PY         0.78065   0.00000
  14        8PZ         0.00000   2.17069
  15        9PX         0.00000   0.00000
  16        9PY        -3.82033   0.00000
  17        9PZ         0.00000  -0.13715
  18       10D 0        0.00000   0.04140
  19       10D+1        0.00000   0.00000
  20       10D-1        0.03528   0.00000
  21       10D+2        0.00000  -0.01405
  22       10D-2        0.00000   0.00000
  23       11D 0        0.00000  -0.22359
  24       11D+1        0.00000   0.00000
  25       11D-1       -0.19150   0.00000
  26       11D+2        0.00000   0.04332
  27       11D-2        0.00000   0.00000
  28       12D 0        0.00000  -0.30524
  29       12D+1        0.00000   0.00000
  30       12D-1       -0.12390   0.00000
  31       12D+2        0.00000  -0.14010
  32       12D-2        0.00000   0.00000
  33       13F 0        0.00000  -0.00886
  34       13F+1        0.00000   0.00000
  35       13F-1       -0.02130   0.00000
  36       13F+2        0.00000  -0.00641
  37       13F-2        0.00000   0.00000
  38       13F+3        0.00000   0.00000
  39       13F-3        0.00600   0.00000
  40       14F 0        0.00000   0.11647
  41       14F+1        0.00000   0.00000
  42       14F-1        0.12640   0.00000
  43       14F+2        0.00000   0.02774
  44       14F-2        0.00000   0.00000
  45       14F+3        0.00000   0.00000
  46       14F-3       -0.00614   0.00000
  47 2   C  1S          0.00000   0.03292
  48        2S          0.00000   0.26988
  49        3S          0.00000   0.10935
  50        4S          0.00000  12.40167
  51        5S          0.00000  19.29528
  52        6PX         0.00000   0.00000
  53        6PY        -0.00385   0.00000
  54        6PZ         0.00000   0.01105
  55        7PX         0.00000   0.00000
  56        7PY        -0.15795   0.00000
  57        7PZ         0.00000   0.61243
  58        8PX         0.00000   0.00000
  59        8PY         0.40017   0.00000
  60        8PZ         0.00000  -0.73586
  61        9PX         0.00000   0.00000
  62        9PY         8.31839   0.00000
  63        9PZ         0.00000  -0.42102
  64       10D 0        0.00000   0.04659
  65       10D+1        0.00000   0.00000
  66       10D-1       -0.00385   0.00000
  67       10D+2        0.00000  -0.02101
  68       10D-2        0.00000   0.00000
  69       11D 0        0.00000   0.21301
  70       11D+1        0.00000   0.00000
  71       11D-1       -0.57397   0.00000
  72       11D+2        0.00000  -0.02655
  73       11D-2        0.00000   0.00000
  74       12D 0        0.00000   1.68501
  75       12D+1        0.00000   0.00000
  76       12D-1        0.80302   0.00000
  77       12D+2        0.00000  -0.72731
  78       12D-2        0.00000   0.00000
  79       13F 0        0.00000  -0.01198
  80       13F+1        0.00000   0.00000
  81       13F-1       -0.02543   0.00000
  82       13F+2        0.00000  -0.00016
  83       13F-2        0.00000   0.00000
  84       13F+3        0.00000   0.00000
  85       13F-3        0.01829   0.00000
  86       14F 0        0.00000  -0.04326
  87       14F+1        0.00000   0.00000
  88       14F-1       -0.22001   0.00000
  89       14F+2        0.00000   0.02698
  90       14F-2        0.00000   0.00000
  91       14F+3        0.00000   0.00000
  92       14F-3       -0.11467   0.00000
  93 3   Cl 1S          0.00804   0.00059
  94        2S          0.14363  -0.01187
  95        3S          0.33014   0.01046
  96        4S         -0.13551   0.06521
  97        5S         -0.69631  -0.57730
  98        6S          2.13479 -10.16397
  99        7PX         0.00000   0.00000
 100        7PY        -0.00188   0.01043
 101        7PZ         0.00512   0.00554
 102        8PX         0.00000   0.00000
 103        8PY         0.05299   0.18045
 104        8PZ         0.11325   0.09951
 105        9PX         0.00000   0.00000
 106        9PY         0.00970  -0.03707
 107        9PZ        -0.01857  -0.02006
 108       10PX         0.00000   0.00000
 109       10PY        -0.07634  -2.91372
 110       10PZ         0.17740  -1.32765
 111       11PX         0.00000   0.00000
 112       11PY        -2.86758  -1.62445
 113       11PZ         0.81203  -1.36366
 114       12D 0        0.00451   0.00128
 115       12D+1        0.00000   0.00000
 116       12D-1       -0.01383  -0.00182
 117       12D+2        0.05650  -0.02309
 118       12D-2        0.00000   0.00000
 119       13D 0        0.00372   0.01182
 120       13D+1        0.00000   0.00000
 121       13D-1        0.14113  -0.00522
 122       13D+2       -0.25987   0.10157
 123       13D-2        0.00000   0.00000
 124       14D 0        0.26964   0.13769
 125       14D+1        0.00000   0.00000
 126       14D-1       -0.02228  -0.76374
 127       14D+2        0.62572   0.65083
 128       14D-2        0.00000   0.00000
 129       15F 0        0.01359  -0.01648
 130       15F+1        0.00000   0.00000
 131       15F-1       -0.00793   0.00798
 132       15F+2        0.00438  -0.04130
 133       15F-2        0.00000   0.00000
 134       15F+3        0.00000   0.00000
 135       15F-3        0.01050  -0.03466
 136       16F 0       -0.02794   0.05480
 137       16F+1        0.00000   0.00000
 138       16F-1        0.06694  -0.02008
 139       16F+2       -0.03569   0.13850
 140       16F-2        0.00000   0.00000
 141       16F+3        0.00000   0.00000
 142       16F-3       -0.00516   0.11744
 143 4   Cl 1S         -0.00804   0.00059
 144        2S         -0.14363  -0.01187
 145        3S         -0.33014   0.01046
 146        4S          0.13551   0.06521
 147        5S          0.69631  -0.57730
 148        6S         -2.13479 -10.16397
 149        7PX         0.00000   0.00000
 150        7PY        -0.00188  -0.01043
 151        7PZ        -0.00512   0.00554
 152        8PX         0.00000   0.00000
 153        8PY         0.05299  -0.18045
 154        8PZ        -0.11325   0.09951
 155        9PX         0.00000   0.00000
 156        9PY         0.00970   0.03707
 157        9PZ         0.01857  -0.02006
 158       10PX         0.00000   0.00000
 159       10PY        -0.07634   2.91372
 160       10PZ        -0.17740  -1.32765
 161       11PX         0.00000   0.00000
 162       11PY        -2.86758   1.62445
 163       11PZ        -0.81203  -1.36366
 164       12D 0       -0.00451   0.00128
 165       12D+1        0.00000   0.00000
 166       12D-1       -0.01383   0.00182
 167       12D+2       -0.05650  -0.02309
 168       12D-2        0.00000   0.00000
 169       13D 0       -0.00372   0.01182
 170       13D+1        0.00000   0.00000
 171       13D-1        0.14113   0.00522
 172       13D+2        0.25987   0.10157
 173       13D-2        0.00000   0.00000
 174       14D 0       -0.26964   0.13769
 175       14D+1        0.00000   0.00000
 176       14D-1       -0.02228   0.76374
 177       14D+2       -0.62572   0.65083
 178       14D-2        0.00000   0.00000
 179       15F 0       -0.01359  -0.01648
 180       15F+1        0.00000   0.00000
 181       15F-1       -0.00793  -0.00798
 182       15F+2       -0.00438  -0.04130
 183       15F-2        0.00000   0.00000
 184       15F+3        0.00000   0.00000
 185       15F-3        0.01050   0.03466
 186       16F 0        0.02794   0.05480
 187       16F+1        0.00000   0.00000
 188       16F-1        0.06694   0.02008
 189       16F+2        0.03569   0.13850
 190       16F-2        0.00000   0.00000
 191       16F+3        0.00000   0.00000
 192       16F-3       -0.00516  -0.11744
          Condensed to atoms (all electrons):
              1          2          3          4
     1  O    8.025016   0.441918  -0.075812  -0.075812
     2  C    0.441918   4.959553   0.136833   0.136833
     3  Cl  -0.075812   0.136833  17.045090  -0.101334
     4  Cl  -0.075812   0.136833  -0.101334  17.045090
 Mulliken atomic charges:
              1
     1  O   -0.315309
     2  C    0.324863
     3  Cl  -0.004777
     4  Cl  -0.004777
 Sum of Mulliken atomic charges =   0.00000
 Mulliken charges with hydrogens summed into heavy atoms:
              1
     1  O   -0.315309
     2  C    0.324863
     3  Cl  -0.004777
     4  Cl  -0.004777
 Sum of Mulliken charges with hydrogens summed into heavy atoms =   0.00000
 Electronic spatial extent (au):  <R**2>=            613.3423
 Charge=              0.0000 electrons
 Dipole moment (field-independent basis, Debye):
    X=              0.0000    Y=              0.0000    Z=             -1.1813  Tot=              1.1813
 Quadrupole moment (field-independent basis, Debye-Ang):
   XX=            -35.0658   YY=            -34.4330   ZZ=            -36.3134
   XY=              0.0000   XZ=              0.0000   YZ=              0.0000
 Traceless Quadrupole moment (field-independent basis, Debye-Ang):
   XX=              0.2049   YY=              0.8378   ZZ=             -1.0427
   XY=              0.0000   XZ=              0.0000   YZ=              0.0000
 Octapole moment (field-independent basis, Debye-Ang**2):
  XXX=              0.0000  YYY=              0.0000  ZZZ=            106.5472  XYY=              0.0000
  XXY=              0.0000  XXZ=             36.1563  XZZ=              0.0000  YZZ=              0.0000
  YYZ=             29.9017  XYZ=              0.0000
 Hexadecapole moment (field-independent basis, Debye-Ang**3):
 XXXX=            -37.1090 YYYY=           -329.6761 ZZZZ=           -382.9881 XXXY=              0.0000
 XXXZ=              0.0000 YYYX=              0.0000 YYYZ=              0.0000 ZZZX=              0.0000
 ZZZY=              0.0000 XXYY=            -65.2967 XXZZ=            -71.0424 YYZZ=           -107.0414
 XXYZ=              0.0000 YYXZ=              0.0000 ZZXY=              0.0000
 N-N= 1.921284399543D+02 E-N=-2.838528787393D+03  KE= 1.032469998265D+03
 1\1\GINC-TRAPISTA\SP\RQCISD-FC\Aug-CC-pVTZ\C1Cl2O1\BRUNS\27-Nov-2021\0
 \\# qcisd/aug-cc-pvtz nosymm density=current output=wfn\\cl2co-wavefun
 ction\\0,1\O,0,0.,0.,0.673397\C,0,0.,0.,-0.494687\Cl,0,0.,-1.44687,-1.
 469805\Cl,0,0.,1.44687,-1.469805\\Version=EM64L-G09RevB.01\HF=-1031.80
 3592\MP2=-1032.5817454\MP3=-1032.601319\MP4D=-1032.6207462\MP4DQ=-1032
 .5983312\MP4SDQ=-1032.6071141\QCISD=-1032.6054329\RMSD=4.200e-09\Dipol
 e=0.,0.,-0.4647605\Quadrupole=0.1523431,0.6228526,-0.7751957,0.,0.,0.\
 PG=C02V [C2(C1O1),SGV(Cl2)]\\@

 Writing a WFN file to GAUSSIAN.wfn.


      LET US REMEMBER, PLEASE, THAT THE SEARCH FOR THE CONSTITUTION
      OF THE WORLD IS ONE OF THE GREATEST AND NOBLEST PROBLEMS PRESENTED 
      BY NATURE.

                                                  -- GALILEO
 Job cpu time:  0 days  2 hours  7 minutes 44.2 seconds.
 File lengths (MBytes):  RWF=  18183 Int=      0 D2E=      0 Chk=      3 Scr=      1
 Normal termination of Gaussian 09 at Sat Nov 27 12:27:38 2021.
