 cl2co-wavefunction
GAUSSIAN            192 MOL ORBITALS    372 PRIMITIVES        4 NUCLEI
  O    1    (CENTRE  1)   0.00000000  0.00000000  1.31033043  CHARGE =  8.0
  C    2    (CENTRE  2)   0.00000000  0.00000000 -0.93482295  CHARGE =  6.0
  Cl   3    (CENTRE  3)   0.00000000 -2.73418805 -2.77752892  CHARGE = 17.0
  Cl   4    (CENTRE  4)   0.00000000  2.73418805 -2.77752892  CHARGE = 17.0
CENTRE ASSIGNMENTS    1  1  1  1  1  1  1  1  1  1  1  1  1  1  1  1  1  1  1  1
CENTRE ASSIGNMENTS    1  1  1  1  1  1  1  1  1  1  1  1  1  1  1  1  1  1  1  1
CENTRE ASSIGNMENTS    1  1  1  1  1  1  1  1  1  1  1  1  1  1  1  1  1  1  1  1
CENTRE ASSIGNMENTS    1  1  1  1  1  1  1  1  1  1  1  1  2  2  2  2  2  2  2  2
CENTRE ASSIGNMENTS    2  2  2  2  2  2  2  2  2  2  2  2  2  2  2  2  2  2  2  2
CENTRE ASSIGNMENTS    2  2  2  2  2  2  2  2  2  2  2  2  2  2  2  2  2  2  2  2
CENTRE ASSIGNMENTS    2  2  2  2  2  2  2  2  2  2  2  2  2  2  2  2  2  2  2  2
CENTRE ASSIGNMENTS    2  2  2  2  3  3  3  3  3  3  3  3  3  3  3  3  3  3  3  3
CENTRE ASSIGNMENTS    3  3  3  3  3  3  3  3  3  3  3  3  3  3  3  3  3  3  3  3
CENTRE ASSIGNMENTS    3  3  3  3  3  3  3  3  3  3  3  3  3  3  3  3  3  3  3  3
CENTRE ASSIGNMENTS    3  3  3  3  3  3  3  3  3  3  3  3  3  3  3  3  3  3  3  3
CENTRE ASSIGNMENTS    3  3  3  3  3  3  3  3  3  3  3  3  3  3  3  3  3  3  3  3
CENTRE ASSIGNMENTS    3  3  3  3  3  3  3  3  3  3  3  3  3  3  3  3  3  3  4  4
CENTRE ASSIGNMENTS    4  4  4  4  4  4  4  4  4  4  4  4  4  4  4  4  4  4  4  4
CENTRE ASSIGNMENTS    4  4  4  4  4  4  4  4  4  4  4  4  4  4  4  4  4  4  4  4
CENTRE ASSIGNMENTS    4  4  4  4  4  4  4  4  4  4  4  4  4  4  4  4  4  4  4  4
CENTRE ASSIGNMENTS    4  4  4  4  4  4  4  4  4  4  4  4  4  4  4  4  4  4  4  4
CENTRE ASSIGNMENTS    4  4  4  4  4  4  4  4  4  4  4  4  4  4  4  4  4  4  4  4
CENTRE ASSIGNMENTS    4  4  4  4  4  4  4  4  4  4  4  4
TYPE ASSIGNMENTS      1  1  1  1  1  1  1  1  1  1  1  1  1  1  1  1  2  2  2  3
TYPE ASSIGNMENTS      3  3  4  4  4  2  3  4  2  3  4  2  3  4  5  6  7  8  9 10
TYPE ASSIGNMENTS      5  6  7  8  9 10  5  6  7  8  9 10 11 12 13 17 14 15 18 19
TYPE ASSIGNMENTS     16 20 11 12 13 17 14 15 18 19 16 20  1  1  1  1  1  1  1  1
TYPE ASSIGNMENTS      1  1  1  1  1  1  1  1  2  2  2  3  3  3  4  4  4  2  3  4
TYPE ASSIGNMENTS      2  3  4  2  3  4  5  6  7  8  9 10  5  6  7  8  9 10  5  6
TYPE ASSIGNMENTS      7  8  9 10 11 12 13 17 14 15 18 19 16 20 11 12 13 17 14 15
TYPE ASSIGNMENTS     18 19 16 20  1  1  1  1  1  1  1  1  1  1  1  1  1  1  1  1
TYPE ASSIGNMENTS      1  1  1  1  1  1  1  1  1  1  1  1  1  1  1  2  2  2  2  2
TYPE ASSIGNMENTS      2  3  3  3  3  3  3  4  4  4  4  4  4  2  2  2  2  2  2  3
TYPE ASSIGNMENTS      3  3  3  3  3  4  4  4  4  4  4  2  3  4  2  3  4  2  3  4
TYPE ASSIGNMENTS      5  6  7  8  9 10  5  6  7  8  9 10  5  6  7  8  9 10 11 12
TYPE ASSIGNMENTS     13 17 14 15 18 19 16 20 11 12 13 17 14 15 18 19 16 20  1  1
TYPE ASSIGNMENTS      1  1  1  1  1  1  1  1  1  1  1  1  1  1  1  1  1  1  1  1
TYPE ASSIGNMENTS      1  1  1  1  1  1  1  1  1  2  2  2  2  2  2  3  3  3  3  3
TYPE ASSIGNMENTS      3  4  4  4  4  4  4  2  2  2  2  2  2  3  3  3  3  3  3  4
TYPE ASSIGNMENTS      4  4  4  4  4  2  3  4  2  3  4  2  3  4  5  6  7  8  9 10
TYPE ASSIGNMENTS      5  6  7  8  9 10  5  6  7  8  9 10 11 12 13 17 14 15 18 19
TYPE ASSIGNMENTS     16 20 11 12 13 17 14 15 18 19 16 20
EXPONENTS  0.1533000D+05 0.2299000D+04 0.5224000D+03 0.1473000D+03 0.4755000D+02
EXPONENTS  0.1676000D+02 0.6207000D+01 0.5224000D+03 0.1473000D+03 0.4755000D+02
EXPONENTS  0.1676000D+02 0.6207000D+01 0.6882000D+00 0.1752000D+01 0.2384000D+00
EXPONENTS  0.7376000D-01 0.3446000D+02 0.7749000D+01 0.2280000D+01 0.3446000D+02
EXPONENTS  0.7749000D+01 0.2280000D+01 0.3446000D+02 0.7749000D+01 0.2280000D+01
EXPONENTS  0.7156000D+00 0.7156000D+00 0.7156000D+00 0.2140000D+00 0.2140000D+00
EXPONENTS  0.2140000D+00 0.5974000D-01 0.5974000D-01 0.5974000D-01 0.2314000D+01
EXPONENTS  0.2314000D+01 0.2314000D+01 0.2314000D+01 0.2314000D+01 0.2314000D+01
EXPONENTS  0.6450000D+00 0.6450000D+00 0.6450000D+00 0.6450000D+00 0.6450000D+00
EXPONENTS  0.6450000D+00 0.2140000D+00 0.2140000D+00 0.2140000D+00 0.2140000D+00
EXPONENTS  0.2140000D+00 0.2140000D+00 0.1428000D+01 0.1428000D+01 0.1428000D+01
EXPONENTS  0.1428000D+01 0.1428000D+01 0.1428000D+01 0.1428000D+01 0.1428000D+01
EXPONENTS  0.1428000D+01 0.1428000D+01 0.5000000D+00 0.5000000D+00 0.5000000D+00
EXPONENTS  0.5000000D+00 0.5000000D+00 0.5000000D+00 0.5000000D+00 0.5000000D+00
EXPONENTS  0.5000000D+00 0.5000000D+00 0.8236000D+04 0.1235000D+04 0.2808000D+03
EXPONENTS  0.7927000D+02 0.2559000D+02 0.8997000D+01 0.3319000D+01 0.2808000D+03
EXPONENTS  0.7927000D+02 0.2559000D+02 0.8997000D+01 0.3319000D+01 0.3643000D+00
EXPONENTS  0.9059000D+00 0.1285000D+00 0.4402000D-01 0.1871000D+02 0.4133000D+01
EXPONENTS  0.1200000D+01 0.1871000D+02 0.4133000D+01 0.1200000D+01 0.1871000D+02
EXPONENTS  0.4133000D+01 0.1200000D+01 0.3827000D+00 0.3827000D+00 0.3827000D+00
EXPONENTS  0.1209000D+00 0.1209000D+00 0.1209000D+00 0.3569000D-01 0.3569000D-01
EXPONENTS  0.3569000D-01 0.1097000D+01 0.1097000D+01 0.1097000D+01 0.1097000D+01
EXPONENTS  0.1097000D+01 0.1097000D+01 0.3180000D+00 0.3180000D+00 0.3180000D+00
EXPONENTS  0.3180000D+00 0.3180000D+00 0.3180000D+00 0.1000000D+00 0.1000000D+00
EXPONENTS  0.1000000D+00 0.1000000D+00 0.1000000D+00 0.1000000D+00 0.7610000D+00
EXPONENTS  0.7610000D+00 0.7610000D+00 0.7610000D+00 0.7610000D+00 0.7610000D+00
EXPONENTS  0.7610000D+00 0.7610000D+00 0.7610000D+00 0.7610000D+00 0.2680000D+00
EXPONENTS  0.2680000D+00 0.2680000D+00 0.2680000D+00 0.2680000D+00 0.2680000D+00
EXPONENTS  0.2680000D+00 0.2680000D+00 0.2680000D+00 0.2680000D+00 0.4561000D+06
EXPONENTS  0.6833000D+05 0.1555000D+05 0.4405000D+04 0.1439000D+04 0.5204000D+03
EXPONENTS  0.2031000D+03 0.8396000D+02 0.3620000D+02 0.1583000D+02 0.6334000D+01
EXPONENTS  0.4405000D+04 0.1439000D+04 0.5204000D+03 0.2031000D+03 0.8396000D+02
EXPONENTS  0.3620000D+02 0.1583000D+02 0.6334000D+01 0.2694000D+01 0.1439000D+04
EXPONENTS  0.2031000D+03 0.8396000D+02 0.3620000D+02 0.1583000D+02 0.6334000D+01
EXPONENTS  0.2694000D+01 0.4313000D+00 0.9768000D+00 0.1625000D+00 0.5910000D-01
EXPONENTS  0.6633000D+03 0.1568000D+03 0.4998000D+02 0.1842000D+02 0.7240000D+01
EXPONENTS  0.2922000D+01 0.6633000D+03 0.1568000D+03 0.4998000D+02 0.1842000D+02
EXPONENTS  0.7240000D+01 0.2922000D+01 0.6633000D+03 0.1568000D+03 0.4998000D+02
EXPONENTS  0.1842000D+02 0.7240000D+01 0.2922000D+01 0.1568000D+03 0.4998000D+02
EXPONENTS  0.1842000D+02 0.7240000D+01 0.2922000D+01 0.3818000D+00 0.1568000D+03
EXPONENTS  0.4998000D+02 0.1842000D+02 0.7240000D+01 0.2922000D+01 0.3818000D+00
EXPONENTS  0.1568000D+03 0.4998000D+02 0.1842000D+02 0.7240000D+01 0.2922000D+01
EXPONENTS  0.3818000D+00 0.1022000D+01 0.1022000D+01 0.1022000D+01 0.1301000D+00
EXPONENTS  0.1301000D+00 0.1301000D+00 0.4190000D-01 0.4190000D-01 0.4190000D-01
EXPONENTS  0.1046000D+01 0.1046000D+01 0.1046000D+01 0.1046000D+01 0.1046000D+01
EXPONENTS  0.1046000D+01 0.3440000D+00 0.3440000D+00 0.3440000D+00 0.3440000D+00
EXPONENTS  0.3440000D+00 0.3440000D+00 0.1350000D+00 0.1350000D+00 0.1350000D+00
EXPONENTS  0.1350000D+00 0.1350000D+00 0.1350000D+00 0.7060000D+00 0.7060000D+00
EXPONENTS  0.7060000D+00 0.7060000D+00 0.7060000D+00 0.7060000D+00 0.7060000D+00
EXPONENTS  0.7060000D+00 0.7060000D+00 0.7060000D+00 0.3120000D+00 0.3120000D+00
EXPONENTS  0.3120000D+00 0.3120000D+00 0.3120000D+00 0.3120000D+00 0.3120000D+00
EXPONENTS  0.3120000D+00 0.3120000D+00 0.3120000D+00 0.4561000D+06 0.6833000D+05
EXPONENTS  0.1555000D+05 0.4405000D+04 0.1439000D+04 0.5204000D+03 0.2031000D+03
EXPONENTS  0.8396000D+02 0.3620000D+02 0.1583000D+02 0.6334000D+01 0.4405000D+04
EXPONENTS  0.1439000D+04 0.5204000D+03 0.2031000D+03 0.8396000D+02 0.3620000D+02
EXPONENTS  0.1583000D+02 0.6334000D+01 0.2694000D+01 0.1439000D+04 0.2031000D+03
EXPONENTS  0.8396000D+02 0.3620000D+02 0.1583000D+02 0.6334000D+01 0.2694000D+01
EXPONENTS  0.4313000D+00 0.9768000D+00 0.1625000D+00 0.5910000D-01 0.6633000D+03
EXPONENTS  0.1568000D+03 0.4998000D+02 0.1842000D+02 0.7240000D+01 0.2922000D+01
EXPONENTS  0.6633000D+03 0.1568000D+03 0.4998000D+02 0.1842000D+02 0.7240000D+01
EXPONENTS  0.2922000D+01 0.6633000D+03 0.1568000D+03 0.4998000D+02 0.1842000D+02
EXPONENTS  0.7240000D+01 0.2922000D+01 0.1568000D+03 0.4998000D+02 0.1842000D+02
EXPONENTS  0.7240000D+01 0.2922000D+01 0.3818000D+00 0.1568000D+03 0.4998000D+02
EXPONENTS  0.1842000D+02 0.7240000D+01 0.2922000D+01 0.3818000D+00 0.1568000D+03
EXPONENTS  0.4998000D+02 0.1842000D+02 0.7240000D+01 0.2922000D+01 0.3818000D+00
EXPONENTS  0.1022000D+01 0.1022000D+01 0.1022000D+01 0.1301000D+00 0.1301000D+00
EXPONENTS  0.1301000D+00 0.4190000D-01 0.4190000D-01 0.4190000D-01 0.1046000D+01
EXPONENTS  0.1046000D+01 0.1046000D+01 0.1046000D+01 0.1046000D+01 0.1046000D+01
EXPONENTS  0.3440000D+00 0.3440000D+00 0.3440000D+00 0.3440000D+00 0.3440000D+00
EXPONENTS  0.3440000D+00 0.1350000D+00 0.1350000D+00 0.1350000D+00 0.1350000D+00
EXPONENTS  0.1350000D+00 0.1350000D+00 0.7060000D+00 0.7060000D+00 0.7060000D+00
EXPONENTS  0.7060000D+00 0.7060000D+00 0.7060000D+00 0.7060000D+00 0.7060000D+00
EXPONENTS  0.7060000D+00 0.7060000D+00 0.3120000D+00 0.3120000D+00 0.3120000D+00
EXPONENTS  0.3120000D+00 0.3120000D+00 0.3120000D+00 0.3120000D+00 0.3120000D+00
EXPONENTS  0.3120000D+00 0.3120000D+00
MO    1     MO 0.0        OCC NO =    2.0000387  ORB. ENERGY =    0.000000
  0.19760681D-10  0.36830661D-10  0.62451561D-10  0.94513797D-10  0.11789851D-09
  0.10117446D-09  0.38744445D-10  0.25237149D-14  0.27077804D-13  0.99813885D-13
  0.29184995D-12  0.35169338D-12 -0.42365194D-12  0.18228633D-11  0.27501773D-12
  0.29579464D-12  0.92332680D-12  0.89531641D-12  0.60397516D-12 -0.87434273D-03
 -0.84781834D-03 -0.57193324D-03  0.68597864D-12  0.66516854D-12  0.44871876D-12
  0.25905851D-12 -0.93697820D-03  0.37484230D-12  0.40128072D-13 -0.75735012D-03
  0.37104832D-12 -0.40778119D-14 -0.19991491D-04  0.55606833D-14  0.71962360D-13
 -0.20316340D-12  0.13120104D-12  0.33635130D-13  0.41951969D-13 -0.22203427D-03
 -0.74940759D-13  0.20736548D-12 -0.13242472D-12  0.14201449D-13 -0.15666184D-13
 -0.39045576D-04  0.50508972D-13  0.15707064D-13 -0.66216036D-13 -0.61887648D-13
  0.26056710D-14  0.11677941D-03 -0.12825351D-13 -0.14390285D-03  0.25317800D-13
  0.56845953D-13  0.22642955D-03 -0.34460092D-13 -0.18369899D-13  0.20527899D-03
 -0.41493309D-13 -0.32135818D-12  0.71868849D-14 -0.86245963D-05  0.29539388D-13
 -0.22453393D-13 -0.19681986D-03  0.27153562D-13  0.89273856D-15  0.22269365D-03
 -0.11577173D-12  0.97885506D-13 -0.91467633D-11 -0.17051410D-10 -0.28819205D-10
 -0.43320641D-10 -0.53211648D-10 -0.44908753D-10 -0.16886864D-10 -0.40854860D-14
 -0.30536476D-13 -0.11412178D-12 -0.31838201D-12 -0.42654412D-12  0.50366907D-12
 -0.56976023D-12 -0.13375963D-12  0.38435040D-13 -0.68014024D-12 -0.63767471D-12
 -0.45406238D-12  0.11038447D-02  0.10349246D-02  0.73692797D-03  0.99612286D-12
  0.93392850D-12  0.66501273D-12 -0.13600357D-12  0.15817264D-03  0.66593706D-12
 -0.58738722D-14  0.74682255D-04 -0.18630198D-12  0.37402741D-14 -0.85863461D-05
 -0.16919086D-13 -0.66821719D-13  0.62033365D-12 -0.55351193D-12  0.47284263D-12
  0.18848691D-12  0.20951538D-03  0.68611880D-13 -0.12064227D-12  0.52030392D-13
 -0.19820631D-13 -0.39975156D-14  0.69770278D-04  0.96327512D-15  0.10391453D-12
 -0.10487781D-12  0.28099632D-13  0.78900705D-14  0.54753960D-04  0.14596036D-13
  0.25353328D-03  0.10439354D-12 -0.28727389D-13  0.33058573D-04 -0.12808565D-12
 -0.15060717D-13 -0.79365843D-03 -0.18509497D-12 -0.13522497D-12 -0.67422731D-14
 -0.25790905D-03 -0.59650271D-13  0.20995179D-13  0.26312343D-04  0.82911010D-13
 -0.76835948D-15  0.74741480D-03  0.96039802D-13  0.13923652D-12 -0.35576970D-03
 -0.66560714D-03 -0.11500215D-02 -0.18643200D-02 -0.28311488D-02 -0.39350304D-02
 -0.46784497D-02 -0.41677255D-02 -0.20697806D-02 -0.33321717D-03 -0.35156380D-05
 -0.19699518D-05 -0.65714293D-04 -0.22900115D-03 -0.82467024D-03 -0.18178829D-02
 -0.25589924D-02  0.12207228D-03  0.33488860D-02  0.19801753D-02  0.26218619D-06
  0.31757150D-05  0.66226188D-05  0.18992518D-04  0.98625500D-06 -0.81904948D-04
 -0.21162665D-03  0.17242344D-03  0.10375054D-03 -0.95393464D-04 -0.55919500D-04
  0.46681395D-08  0.61490318D-08  0.67833446D-08  0.56340988D-08  0.29918628D-08
  0.77191624D-09 -0.46787633D+01 -0.61630258D+01 -0.67987822D+01 -0.56469209D+01
 -0.29986717D+01 -0.77367297D+00  0.67587278D+01  0.89028256D+01  0.98212102D+01
  0.81572841D+01  0.43317442D+01  0.11176126D+01 -0.19750089D-12  0.19093115D-11
  0.26923285D-11  0.38507420D-11 -0.19499615D-13 -0.35314936D-11  0.23837274D-03
 -0.23044342D-02 -0.32494928D-02 -0.46476343D-02  0.23534966D-04  0.42623190D-02
 -0.33357335D-03  0.32247725D-02  0.45472659D-02  0.65037932D-02 -0.32934293D-04
 -0.59645917D-02  0.30631706D-10 -0.30026836D-01  0.43585089D-01 -0.23347764D-12
  0.34676860D-03 -0.55394249D-03 -0.10273262D-13  0.10923218D-04 -0.17100230D-04
 -0.13000389D-04 -0.74961664D-03  0.76261702D-03  0.43484010D-12  0.28049508D-12
  0.68382477D-03  0.56709084D-04  0.43282829D-03 -0.48953738D-03 -0.26071728D-12
 -0.17099350D-12 -0.34759144D-03  0.45807475D-05 -0.18262498D-05 -0.27544977D-05
  0.86747171D-14  0.12737141D-13 -0.45096741D-05  0.74019724D-14 -0.13947334D-04
 -0.29419550D-05  0.11918024D-13  0.17974128D-04  0.36446410D-04 -0.34123941D-13
  0.23867874D-04 -0.27620545D-04  0.12486439D-13  0.13126681D-13  0.75089150D-04
 -0.42138047D-04 -0.47194992D-13  0.10634151D-04  0.50782644D-04  0.78149486D-14
 -0.23590160D-03  0.75631499D-04 -0.83756437D-13  0.35576973D-03  0.66560721D-03
  0.11500216D-02  0.18643202D-02  0.28311491D-02  0.39350309D-02  0.46784502D-02
  0.41677260D-02  0.20697809D-02  0.33321721D-03  0.35156384D-05  0.19699519D-05
  0.65714297D-04  0.22900117D-03  0.82467029D-03  0.18178830D-02  0.25589926D-02
 -0.12207229D-03 -0.33488862D-02 -0.19801754D-02 -0.26218618D-06 -0.31757150D-05
 -0.66226187D-05 -0.18992518D-04 -0.98625499D-06  0.81904947D-04  0.21162665D-03
 -0.17242344D-03 -0.10375054D-03  0.95393464D-04  0.55919500D-04 -0.17426075D-08
 -0.22954217D-08 -0.25322095D-08 -0.21031982D-08 -0.11168566D-08 -0.28815484D-09
 -0.46787633D+01 -0.61630258D+01 -0.67987822D+01 -0.56469209D+01 -0.29986717D+01
 -0.77367297D+00 -0.67587278D+01 -0.89028256D+01 -0.98212102D+01 -0.81572841D+01
 -0.43317442D+01 -0.11176126D+01  0.82843307D-13 -0.80087579D-12 -0.11293185D-11
 -0.16152241D-11  0.81792677D-14  0.14813129D-11  0.23837274D-03 -0.23044342D-02
 -0.32494928D-02 -0.46476344D-02  0.23534966D-04  0.42623190D-02  0.33357335D-03
 -0.32247726D-02 -0.45472659D-02 -0.65037932D-02  0.32934293D-04  0.59645918D-02
 -0.11260265D-10 -0.30026836D-01 -0.43585089D-01  0.97993299D-13  0.34676860D-03
  0.55394249D-03  0.15576194D-14  0.10923218D-04  0.17100230D-04  0.13000389D-04
  0.74961664D-03 -0.76261703D-03  0.27706018D-12 -0.12019693D-12  0.68382477D-03
 -0.56709084D-04 -0.43282829D-03  0.48953738D-03 -0.10937138D-12  0.78069565D-13
 -0.34759144D-03 -0.45807475D-05  0.18262499D-05  0.27544977D-05  0.80855032D-14
 -0.16193364D-13 -0.45096740D-05 -0.11083233D-13 -0.13947334D-04  0.29419550D-05
 -0.19093232D-13  0.17974128D-04 -0.36446410D-04  0.52342930D-13  0.23867874D-04
  0.27620545D-04 -0.48183477D-14 -0.65145915D-15  0.75089150D-04  0.42138047D-04
  0.23843897D-13  0.10634151D-04 -0.50782644D-04 -0.21889520D-13 -0.23590160D-03
 -0.75631498D-04 -0.32452192D-13
MO    2     MO 0.0        OCC NO =    2.0000377  ORB. ENERGY =    0.000000
  0.53702177D-02  0.10009203D-01  0.16972010D-01  0.25685332D-01  0.32040427D-01
  0.27495453D-01  0.10529298D-01  0.82813793D-06  0.88853766D-05  0.32753171D-04
  0.95768351D-04  0.11540552D-03 -0.13901818D-03  0.53378566D-03  0.20583843D-03
  0.29704777D-03 -0.14727840D-11 -0.14281050D-11 -0.96339123D-12  0.53499259D-12
  0.51876285D-12  0.34995436D-12  0.16112866D-02  0.15624060D-02  0.10539899D-02
 -0.40692469D-12  0.75169424D-12  0.58999909D-03 -0.83611092D-13  0.62623559D-12
  0.49502363D-03  0.40176187D-14  0.10616430D-13  0.10281176D-04  0.13081507D-03
 -0.21906530D-03  0.88250233D-04  0.82559848D-14 -0.96119174D-13  0.17797755D-12
 -0.73134822D-04  0.24572488D-03 -0.17259005D-03  0.27056588D-14  0.42787321D-13
  0.27502778D-13  0.58576470D-04  0.22774442D-04 -0.81350912D-04 -0.19607294D-13
  0.63686283D-14 -0.10108550D-12  0.16295578D-13  0.11519926D-12  0.28145623D-04
 -0.89293225D-13 -0.19139771D-12 -0.38638478D-04  0.40406490D-13 -0.15420007D-12
 -0.45798392D-04 -0.11143677D-12 -0.73483397D-14  0.81232614D-14  0.36357765D-04
  0.36586805D-13  0.16462042D-12  0.30352891D-04 -0.14541786D-13 -0.18899020D-12
 -0.13942618D-03  0.32485069D-13 -0.38975895D-02 -0.72658921D-02 -0.12280348D-01
 -0.18459653D-01 -0.22674377D-01 -0.19136374D-01 -0.71957765D-02 -0.41434441D-05
 -0.30969678D-04 -0.11574076D-03 -0.32289869D-03 -0.43259522D-03  0.51081429D-03
 -0.10935312D-03  0.75891126D-06  0.86968938D-04  0.10226783D-11  0.95882590D-12
  0.68274116D-12 -0.63526381D-12 -0.59560020D-12 -0.42410282D-12  0.10087666D-02
  0.94578285D-03  0.67345373D-03  0.22888480D-12 -0.15382803D-12  0.83690194D-03
  0.27162523D-13 -0.10289148D-12 -0.20438629D-03 -0.41662231D-14  0.10806467D-13
 -0.21863784D-04 -0.68939422D-04  0.68241019D-03 -0.61347077D-03  0.14765182D-12
 -0.28326781D-12 -0.18191719D-12  0.79632879D-04 -0.16524194D-03  0.85609066D-04
 -0.70999444D-14  0.18557994D-13  0.98560422D-14 -0.16115625D-06  0.11577665D-03
 -0.11561550D-03  0.85417216D-14 -0.12292591D-13 -0.30651623D-13 -0.21184791D-13
 -0.21554621D-12  0.13790156D-03  0.34652386D-13 -0.31482453D-13 -0.18082363D-03
  0.28901986D-13  0.67812109D-12 -0.23288106D-03 -0.43046529D-13  0.83558752D-14
  0.21847782D-12 -0.68263037D-04 -0.29731726D-13 -0.12505700D-13  0.95083186D-04
  0.46641000D-14 -0.64292777D-12  0.10970592D-03  0.44573246D-13 -0.14140161D-02
 -0.26454732D-02 -0.45707909D-02 -0.74097891D-02 -0.11252476D-01 -0.15639883D-01
 -0.18594622D-01 -0.16564736D-01 -0.82263979D-02 -0.13243805D-02 -0.13972996D-04
 -0.69368111D-05 -0.23140040D-03 -0.80638408D-03 -0.29039197D-02 -0.64013295D-02
 -0.90110059D-02  0.42985435D-03  0.11792466D-01  0.69728114D-02  0.10181435D-06
  0.12332204D-05  0.25717512D-05  0.73753347D-05  0.38299086D-06 -0.31806020D-04
 -0.82180648D-04  0.66956924D-04  0.31057024D-03 -0.19497963D-03 -0.16857034D-03
 -0.12807941D-08 -0.16871054D-08 -0.18611414D-08 -0.15458236D-08 -0.82087525D-09
 -0.21179010D-09  0.41156242D+01  0.54212398D+01  0.59804761D+01  0.49672537D+01
  0.26377496D+01  0.68055317D+00 -0.71113492D+01 -0.93673104D+01 -0.10333610D+02
 -0.85828720D+01 -0.45577432D+01 -0.11759216D+01  0.45517010D-13 -0.44002916D-12
 -0.62048705D-12 -0.88746062D-12  0.44939757D-14  0.81388509D-12 -0.17647999D-03
  0.17060950D-02  0.24057721D-02  0.34408905D-02 -0.17424185D-04 -0.31556211D-02
  0.33261001D-03 -0.32154595D-02 -0.45341336D-02 -0.64850105D-02  0.32839180D-04
  0.59473663D-02 -0.85697068D-11  0.26474740D-01 -0.46035451D-01  0.48351416D-13
 -0.16856484D-03  0.21817254D-03  0.39970265D-14 -0.11653637D-04  0.70705550D-05
  0.22460858D-04  0.42985269D-03 -0.45231355D-03 -0.12672846D-13 -0.65004856D-13
 -0.39833750D-03  0.55870780D-05 -0.27472371D-03  0.26913663D-03  0.58956097D-13
  0.33315676D-13  0.44725738D-03 -0.54656238D-06  0.38086778D-04 -0.37540215D-04
 -0.90569077D-15  0.48480651D-14 -0.17132449D-04  0.44818207D-14 -0.32868762D-04
  0.98019751D-05  0.16105158D-13  0.51469654D-04  0.55102640D-05 -0.29550620D-13
  0.47136632D-04 -0.34916189D-04 -0.32312585D-14 -0.67472935D-14 -0.48131741D-04
 -0.13333590D-04  0.48093672D-14  0.14376365D-04 -0.39959179D-04  0.15432513D-13
  0.13001886D-03  0.79959949D-04  0.16659640D-13 -0.14140161D-02 -0.26454733D-02
 -0.45707910D-02 -0.74097893D-02 -0.11252476D-01 -0.15639883D-01 -0.18594623D-01
 -0.16564736D-01 -0.82263981D-02 -0.13243805D-02 -0.13972997D-04 -0.69368112D-05
 -0.23140041D-03 -0.80638409D-03 -0.29039197D-02 -0.64013296D-02 -0.90110060D-02
  0.42985436D-03  0.11792466D-01  0.69728115D-02  0.10181435D-06  0.12332204D-05
  0.25717512D-05  0.73753346D-05  0.38299086D-06 -0.31806020D-04 -0.82180647D-04
  0.66956923D-04  0.31057024D-03 -0.19497963D-03 -0.16857034D-03 -0.32695486D-08
 -0.43067603D-08 -0.47510308D-08 -0.39461030D-08 -0.20954902D-08 -0.54064743D-09
 -0.41156242D+01 -0.54212398D+01 -0.59804761D+01 -0.49672537D+01 -0.26377495D+01
 -0.68055317D+00 -0.71113492D+01 -0.93673104D+01 -0.10333610D+02 -0.85828720D+01
 -0.45577432D+01 -0.11759216D+01  0.13187449D-12 -0.12748777D-11 -0.17977107D-11
 -0.25712018D-11  0.13020204D-13  0.23580345D-11  0.17647999D-03 -0.17060950D-02
 -0.24057721D-02 -0.34408904D-02  0.17424185D-04  0.31556211D-02  0.33261001D-03
 -0.32154595D-02 -0.45341336D-02 -0.64850105D-02  0.32839180D-04  0.59473662D-02
 -0.21588063D-10 -0.26474740D-01 -0.46035451D-01  0.15016239D-12  0.16856484D-03
  0.21817254D-03  0.76687500D-14  0.11653637D-04  0.70705550D-05  0.22460858D-04
  0.42985269D-03 -0.45231355D-03  0.23580334D-12 -0.19033254D-12  0.39833750D-03
  0.55870781D-05 -0.27472371D-03  0.26913663D-03 -0.17503877D-12  0.11068412D-12
 -0.44725738D-03 -0.54656237D-06  0.38086778D-04 -0.37540215D-04  0.58387554D-14
 -0.38920346D-14  0.17132449D-04 -0.13602916D-14  0.32868762D-04  0.98019751D-05
  0.67770522D-14 -0.51469654D-04  0.55102640D-05 -0.26961775D-14 -0.47136632D-04
 -0.34916189D-04  0.59927290D-14 -0.11098831D-13  0.48131741D-04 -0.13333590D-04
  0.27411289D-13 -0.14376365D-04 -0.39959179D-04  0.58852027D-14 -0.13001886D-03
  0.79959950D-04 -0.53319570D-13
MO    3     MO 0.0        OCC NO =    2.0000334  ORB. ENERGY =    0.000000
 -0.19113996D-10 -0.35625345D-10 -0.60407779D-10 -0.91420751D-10 -0.11404018D-09
 -0.97863441D-10 -0.37476499D-10 -0.25689667D-14 -0.27563327D-13 -0.10160361D-12
 -0.29708300D-12 -0.35799946D-12  0.43124829D-12 -0.17157694D-11  0.76425801D-13
 -0.10334426D-13  0.51839503D-11  0.50266880D-11  0.33909740D-11  0.81517321D-13
  0.79044381D-13  0.53322872D-13  0.78759674D-12  0.76370391D-12  0.51519014D-12
  0.14742882D-11  0.27331071D-12  0.85834551D-14  0.31436467D-12  0.21541155D-12
 -0.32128183D-13 -0.13132191D-13 -0.15560585D-14 -0.17172303D-14  0.33098705D-13
  0.42862602D-13 -0.75961307D-13  0.10664564D-03  0.37849481D-12  0.89252208D-14
  0.97410885D-14 -0.30223780D-13  0.20482691D-13  0.34954224D-04 -0.18254353D-12
  0.50471782D-13 -0.32742592D-14  0.95102970D-15  0.23232295D-14 -0.15597410D-03
 -0.29641900D-13 -0.26593109D-13 -0.61362676D-13  0.44669620D-13 -0.30843387D-13
  0.32819164D-12 -0.98972747D-13  0.45657106D-13 -0.14410362D-12 -0.35036113D-13
  0.46873056D-13 -0.77363392D-03  0.24727594D-13  0.86001515D-14  0.60017607D-15
 -0.13843650D-12  0.75308558D-13 -0.75385594D-14  0.64253716D-13 -0.10110901D-12
  0.57380312D-14  0.24215097D-03  0.11138267D-10  0.20763974D-10  0.35093946D-10
  0.52752746D-10  0.64797300D-10  0.54686635D-10  0.20563603D-10  0.15537708D-14
  0.11613474D-13  0.43402203D-13  0.12108539D-12  0.16222104D-12 -0.19155280D-12
  0.93308127D-12 -0.15001759D-12 -0.27581552D-13 -0.37404715D-11 -0.35069298D-11
 -0.24971429D-11 -0.99235845D-13 -0.93039912D-13 -0.66249960D-13 -0.27647498D-12
 -0.25921287D-12 -0.18457501D-12 -0.85681084D-12 -0.54885750D-13 -0.70987073D-13
 -0.85821667D-13 -0.42992734D-13  0.16134284D-13  0.15477457D-13  0.82950909D-14
  0.25553844D-14 -0.25890879D-13 -0.79113754D-13  0.10500463D-12  0.12037383D-02
  0.10275723D-11 -0.77726845D-13  0.27810606D-13 -0.10282386D-14 -0.26782367D-13
 -0.48969460D-04 -0.98665307D-13  0.85159011D-13  0.23560488D-14 -0.14983642D-13
  0.12627593D-13  0.71707294D-04  0.39687118D-13 -0.24198373D-14  0.88865847D-13
 -0.98847889D-13 -0.45397040D-14 -0.13438369D-12 -0.15010188D-13  0.19108569D-15
 -0.13221386D-12  0.31155385D-12  0.13428026D-13 -0.34946228D-03 -0.32123524D-13
  0.91893843D-13 -0.94193531D-15  0.11637130D-12 -0.27770222D-14 -0.65379373D-14
 -0.20000724D-13 -0.27290451D-12  0.93637433D-14  0.35160706D-03  0.37002748D-10
  0.69228192D-10  0.11961096D-09  0.19390342D-09  0.29446095D-09  0.40927302D-09
  0.48659426D-09  0.43347507D-09  0.21527289D-09  0.34657114D-10  0.36565302D-12
  0.77546208D-13  0.25868117D-11  0.90145208D-11  0.32462749D-10  0.71560090D-10
  0.10073351D-09 -0.48053168D-11 -0.13182729D-09 -0.77948653D-10  0.16254677D-14
  0.19688384D-13  0.41058048D-13  0.11774733D-12  0.61144551D-14 -0.50778361D-12
 -0.13120153D-11  0.10689683D-11 -0.49350421D-11  0.15452732D-12  0.82644135D-13
  0.82142073D+01  0.10820033D+02  0.11936190D+02  0.99139401D+01  0.52645773D+01
  0.13582885D+01  0.18333876D-08  0.24150003D-08  0.26641234D-08  0.22127631D-08
  0.11750386D-08  0.30316610D-09 -0.14198493D-08 -0.18702737D-08 -0.20632046D-08
 -0.17136530D-08 -0.90999730D-09 -0.23478406D-09 -0.35872702D-03  0.34679420D-02
  0.48901603D-02  0.69942228D-02 -0.35417760D-04 -0.64143620D-02 -0.91597696D-13
  0.88550759D-12  0.12486581D-11  0.17859115D-11 -0.90436042D-14 -0.16378492D-11
  0.75527559D-13 -0.73015185D-12 -0.10295903D-11 -0.14725865D-11  0.74569709D-14
  0.13505007D-11  0.53683989D-01  0.11958775D-10 -0.89852940D-11 -0.42379760D-03
 -0.12563788D-12  0.18729371D-12 -0.15148401D-04 -0.32398052D-14  0.67082293D-14
  0.16038400D-13  0.21263345D-12 -0.22867185D-12  0.90855220D-03  0.51356284D-03
 -0.31686417D-12 -0.12624482D-13 -0.13576904D-12  0.14839352D-12 -0.47091305D-03
 -0.31741386D-03  0.65163214D-13 -0.43609483D-14 -0.28144178D-14  0.71753661D-14
  0.21556939D-04  0.36903028D-04  0.52336285D-14  0.22834018D-04  0.14843521D-13
 -0.18939361D-14  0.41884559D-04 -0.13143201D-13 -0.83767731D-14 -0.11038661D-03
 -0.31387361D-13  0.14058581D-13  0.99586959D-05  0.17507250D-04 -0.23908700D-13
  0.18738632D-13 -0.90326751D-04 -0.29427923D-14 -0.13024524D-13  0.37804999D-04
  0.74668894D-13 -0.43191372D-13 -0.14733566D-03  0.27671202D-12  0.51769867D-12
  0.89446847D-12  0.14500385D-11  0.22020226D-11  0.30606042D-11  0.36388239D-11
  0.32415908D-11  0.16098425D-11  0.25917103D-12  0.27344074D-14 -0.40625436D-13
 -0.13551965D-11 -0.47225886D-11 -0.17006806D-10 -0.37489388D-10 -0.52772958D-10
  0.25174421D-11  0.69062580D-10  0.40836271D-10 -0.10189875D-14 -0.12342427D-13
 -0.25738830D-13 -0.73814483D-13 -0.38330833D-14  0.31832385D-12  0.82248770D-12
 -0.67012426D-12  0.24854883D-11  0.62983737D-13 -0.19038807D-13 -0.82142073D+01
 -0.10820033D+02 -0.11936190D+02 -0.99139401D+01 -0.52645773D+01 -0.13582885D+01
  0.30789039D-08  0.40556367D-08  0.44740021D-08  0.37160091D-08  0.19733039D-08
  0.50912273D-09  0.29764507D-08  0.39206818D-08  0.43251257D-08  0.35923556D-08
  0.19076405D-08  0.49218122D-09  0.35872702D-03 -0.34679420D-02 -0.48901603D-02
 -0.69942228D-02  0.35417760D-04  0.64143620D-02 -0.14249717D-12  0.13775709D-11
  0.19425188D-11  0.27783158D-11 -0.14069000D-13 -0.25479776D-11 -0.14965867D-12
  0.14468038D-11  0.20401443D-11  0.29179461D-11 -0.14776068D-13 -0.26760318D-11
 -0.53683989D-01  0.20464292D-10  0.18739467D-10  0.42379760D-03 -0.18894762D-12
 -0.21608183D-12  0.15148401D-04 -0.64876433D-14 -0.80351748D-14  0.16610548D-13
 -0.35658129D-12  0.33997074D-12  0.90855220D-03 -0.51356284D-03 -0.26257341D-12
 -0.12029862D-13  0.22559996D-12 -0.21357010D-12 -0.47091305D-03  0.31741386D-03
  0.85217995D-13  0.24956547D-14 -0.59137706D-14  0.34181159D-14  0.21556939D-04
 -0.36903028D-04 -0.44244858D-14 -0.22834018D-04  0.90396576D-15  0.91870428D-15
 -0.41884559D-04  0.52908133D-14  0.10253358D-13  0.11038661D-03 -0.80027106D-14
 -0.13009471D-13  0.99586959D-05 -0.17507250D-04 -0.33555185D-13 -0.19501775D-13
  0.90326751D-04  0.50744442D-14  0.16746686D-13 -0.37804999D-04  0.95591110D-13
  0.41758637D-13 -0.14733566D-03
MO    4     MO 0.0        OCC NO =    2.0000299  ORB. ENERGY =    0.000000
 -0.70531963D-11 -0.13145998D-10 -0.22290887D-10 -0.33734888D-10 -0.42081613D-10
 -0.36112285D-10 -0.13829087D-10 -0.73503310D-15 -0.78864228D-14 -0.29070840D-13
 -0.85001429D-13 -0.10243086D-12  0.12338882D-12 -0.66857739D-12 -0.15222018D-13
 -0.72156676D-13 -0.52341998D-02 -0.50754131D-02 -0.34238437D-02 -0.45716933D-12
 -0.44330046D-12 -0.29904787D-12 -0.40961269D-12 -0.39718653D-12 -0.26793968D-12
 -0.14820828D-02 -0.25867984D-12 -0.24530266D-12 -0.30877441D-03 -0.20394470D-12
 -0.18875466D-12  0.13999017D-04 -0.11619610D-13 -0.93620920D-15 -0.50096426D-13
  0.39122475D-13  0.10973951D-13  0.97856363D-13 -0.38317197D-03 -0.94828959D-13
  0.51754137D-14 -0.79543267D-13  0.74367853D-13  0.34968129D-13  0.17390169D-03
  0.40804908D-14 -0.26677539D-13  0.29388894D-15  0.26383650D-13 -0.15715955D-12
  0.26430739D-04  0.34662456D-13  0.62752485D-04 -0.37397447D-13  0.40972060D-14
 -0.32981592D-03  0.36952190D-13 -0.28111746D-13  0.14155846D-03  0.75240151D-13
  0.15820128D-13 -0.76928314D-12 -0.26059110D-04  0.83547354D-15 -0.39851077D-14
  0.13726755D-03 -0.39470999D-13  0.32407786D-14 -0.59090225D-04  0.36964578D-13
  0.87145446D-14  0.24470191D-12 -0.19165027D-10 -0.35727472D-10 -0.60384295D-10
 -0.90768858D-10 -0.11149328D-09 -0.94096398D-10 -0.35382703D-10 -0.22808706D-14
 -0.17048095D-13 -0.63712623D-13 -0.17774830D-12 -0.23813371D-12  0.28119151D-12
 -0.14502365D-11 -0.36025177D-12 -0.47752427D-13  0.37274989D-02  0.34947671D-02
  0.24884824D-02  0.64247581D-12  0.60236191D-12  0.42891756D-12 -0.59522531D-12
 -0.55806156D-12 -0.39737308D-12  0.84492449D-03  0.10717296D-13 -0.34405414D-12
  0.87819080D-04 -0.72606111D-14  0.16788838D-12 -0.15799994D-04  0.23746872D-14
  0.51926742D-14  0.80549365D-13 -0.19350519D-12  0.11295583D-12  0.12029309D-11
 -0.10301240D-02  0.21564756D-13  0.47603021D-13 -0.25713984D-14 -0.45031623D-13
 -0.49172034D-13  0.87831491D-04  0.12248994D-12  0.82180542D-14 -0.38781688D-13
  0.30563634D-13  0.72550748D-13 -0.41533207D-04  0.27796488D-13 -0.86284591D-04
  0.48441374D-13 -0.80906730D-13  0.13451269D-03  0.65079513D-14  0.10956826D-12