 Entering Gaussian System, Link 0=/home/bruns/programas/chemistry/gaussian/g09/g09
 Input=GAUSSIAN.com
 Output=GAUSSIAN.log
 Initial command:
 /home/bruns/programas/chemistry/gaussian/g09/l1.exe /home/bruns/programas/chemistry/gaussian/work/Gau-47570.inp -scrdir=/home/bruns/programas/chemistry/gaussian/work/
 Entering Link 1 = /home/bruns/programas/chemistry/gaussian/g09/l1.exe PID=     47572.
  
 Copyright (c) 1988,1990,1992,1993,1995,1998,2003,2009,2010,
            Gaussian, Inc.  All Rights Reserved.
  
 This is part of the Gaussian(R) 09 program.  It is based on
 the Gaussian(R) 03 system (copyright 2003, Gaussian, Inc.),
 the Gaussian(R) 98 system (copyright 1998, Gaussian, Inc.),
 the Gaussian(R) 94 system (copyright 1995, Gaussian, Inc.),
 the Gaussian 92(TM) system (copyright 1992, Gaussian, Inc.),
 the Gaussian 90(TM) system (copyright 1990, Gaussian, Inc.),
 the Gaussian 88(TM) system (copyright 1988, Gaussian, Inc.),
 the Gaussian 86(TM) system (copyright 1986, Carnegie Mellon
 University), and the Gaussian 82(TM) system (copyright 1983,
 Carnegie Mellon University). Gaussian is a federally registered
 trademark of Gaussian, Inc.
  
 This software contains proprietary and confidential information,
 including trade secrets, belonging to Gaussian, Inc.
  
 This software is provided under written license and may be
 used, copied, transmitted, or stored only in accord with that
 written license.
  
 The following legend is applicable only to US Government
 contracts under FAR:
  
                    RESTRICTED RIGHTS LEGEND
  
 Use, reproduction and disclosure by the US Government is
 subject to restrictions as set forth in subparagraphs (a)
 and (c) of the Commercial Computer Software - Restricted
 Rights clause in FAR 52.227-19.
  
 Gaussian, Inc.
 340 Quinnipiac St., Bldg. 40, Wallingford CT 06492
  
  
 ---------------------------------------------------------------
 Warning -- This program may not be used in any manner that
 competes with the business of Gaussian, Inc. or will provide
 assistance to any competitor of Gaussian, Inc.  The licensee
 of this program is prohibited from giving any competitor of
 Gaussian, Inc. access to this program.  By using this program,
 the user acknowledges that Gaussian, Inc. is engaged in the
 business of creating and licensing software in the field of
 computational chemistry and represents and warrants to the
 licensee that it is not a competitor of Gaussian, Inc. and that
 it will not use this program in any manner prohibited above.
 ---------------------------------------------------------------
  

 Cite this work as:
 Gaussian 09, Revision B.01,
 M. J. Frisch, G. W. Trucks, H. B. Schlegel, G. E. Scuseria, 
 M. A. Robb, J. R. Cheeseman, G. Scalmani, V. Barone, B. Mennucci, 
 G. A. Petersson, H. Nakatsuji, M. Caricato, X. Li, H. P. Hratchian, 
 A. F. Izmaylov, J. Bloino, G. Zheng, J. L. Sonnenberg, M. Hada, 
 M. Ehara, K. Toyota, R. Fukuda, J. Hasegawa, M. Ishida, T. Nakajima, 
 Y. Honda, O. Kitao, H. Nakai, T. Vreven, J. A. Montgomery, Jr., 
 J. E. Peralta, F. Ogliaro, M. Bearpark, J. J. Heyd, E. Brothers, 
 K. N. Kudin, V. N. Staroverov, T. Keith, R. Kobayashi, J. Normand, 
 K. Raghavachari, A. Rendell, J. C. Burant, S. S. Iyengar, J. Tomasi, 
 M. Cossi, N. Rega, J. M. Millam, M. Klene, J. E. Knox, J. B. Cross, 
 V. Bakken, C. Adamo, J. Jaramillo, R. Gomperts, R. E. Stratmann, 
 O. Yazyev, A. J. Austin, R. Cammi, C. Pomelli, J. W. Ochterski, 
 R. L. Martin, K. Morokuma, V. G. Zakrzewski, G. A. Voth, 
 P. Salvador, J. J. Dannenberg, S. Dapprich, A. D. Daniels, 
 O. Farkas, J. B. Foresman, J. V. Ortiz, J. Cioslowski, 
 and D. J. Fox, Gaussian, Inc., Wallingford CT, 2010.
 
 ******************************************
 Gaussian 09:  EM64L-G09RevB.01 12-Aug-2010
                27-Nov-2021 
 ******************************************
 %nproc=8
 Will use up to    8 processors via shared memory.
 %mem=8GB
 -----------------------------------------------------
 # qcisd/aug-cc-pvtz nosymm density=current output=wfn
 -----------------------------------------------------
 1/30=1,38=1/1;
 2/12=2,15=1,17=6,18=5,40=1/2;
 3/5=16,6=1,7=10,11=9,16=1,25=1,30=1,71=1/1,2,3;
 4//1;
 5/5=2,38=5/2;
 8/6=4,9=120000,10=1/1,4;
 9/5=8,15=1/13;
 11/28=-7,31=1,32=3,42=3/11;
 10/5=6,13=10,31=1/2;
 6/7=2,8=2,9=2,10=2,22=-1,31=1/1;
 99/5=1,6=1100,9=1/99;
 ------------------
 cl2co-wavefunction
 ------------------
 Symbolic Z-matrix:
 Charge =  0 Multiplicity = 1
 O                     0.        0.        0.6834 
 C                     0.        0.       -0.48469 
 Cl                    0.       -1.44687  -1.46981 
 Cl                    0.        1.44687  -1.46981 
 
                          Input orientation:                          
 ---------------------------------------------------------------------
 Center     Atomic      Atomic             Coordinates (Angstroms)
 Number     Number       Type             X           Y           Z
 ---------------------------------------------------------------------
      1          8           0        0.000000    0.000000    0.683397
      2          6           0        0.000000    0.000000   -0.484687
      3         17           0        0.000000   -1.446870   -1.469805
      4         17           0        0.000000    1.446870   -1.469805
 ---------------------------------------------------------------------
                    Distance matrix (angstroms):
                    1          2          3          4
     1  O    0.000000
     2  C    1.168084   0.000000
     3  Cl   2.594169   1.750397   0.000000
     4  Cl   2.594169   1.750397   2.893740   0.000000
 Symmetry turned off by external request.
 Stoichiometry    CCl2O
 Framework group  C2V[C2(CO),SGV(Cl2)]
 Deg. of freedom     3
 Full point group                 C2V     NOp   4
 Rotational constants (GHZ):      7.9028275      3.4518093      2.4024594
 Standard basis: Aug-CC-pVTZ (5D, 7F)
 Integral buffers will be    131072 words long.
 Raffenetti 1 integral format.
 Two-electron integral symmetry is turned off.
   192 basis functions,   372 primitive gaussians,   228 cartesian basis functions
    24 alpha electrons       24 beta electrons
       nuclear repulsion energy       191.7522349889 Hartrees.
 NAtoms=    4 NActive=    4 NUniq=    4 SFac= 1.00D+00 NAtFMM=   50 NAOKFM=F Big=F
 One-electron integrals computed using PRISM.
 NBasis=   192 RedAO= T  NBF=   192
 NBsUse=   192 1.00D-06 NBFU=   192
 Harris functional with IExCor=  205 diagonalized for initial guess.
 ExpMin= 3.57D-02 ExpMax= 4.56D+05 ExpMxC= 1.44D+03 IAcc=3 IRadAn=         0 AccDes= 0.00D+00
 HarFok:  IExCor=  205 AccDes= 0.00D+00 IRadAn=         0 IDoV= 1
 ScaDFX=  1.000000  1.000000  1.000000  1.000000
 FoFCou: FMM=F IPFlag=           0 FMFlag=      100000 FMFlg1=           0
         NFxFlg=           0 DoJE=T BraDBF=F KetDBF=T FulRan=T
         Omega=  0.000000  0.000000  1.000000  0.000000  0.000000 ICntrl=     500 IOpCl=  0
         NMat0=    1 NMatS0=    1 NMatT0=    0 NMatD0=    1 NMtDS0=    0 NMtDT0=    0
         I1Cent=           4 NGrid=           0.
 Symmetry not used in FoFCou.
 Requested convergence on RMS density matrix=1.00D-08 within 128 cycles.
 Requested convergence on MAX density matrix=1.00D-06.
 Requested convergence on             energy=1.00D-06.
 No special actions if energy rises.
 Keep R1 ints in memory in canonical form, NReq=346956363.
 SCF Done:  E(RHF) =  -1031.80336713     A.U. after   12 cycles
             Convg  =    0.4248D-08             -V/T =  2.0002
 ExpMin= 3.57D-02 ExpMax= 4.56D+05 ExpMxC= 1.44D+03 IAcc=3 IRadAn=         5 AccDes= 0.00D+00
 HarFok:  IExCor=  205 AccDes= 0.00D+00 IRadAn=         5 IDoV=-2
 ScaDFX=  1.000000  1.000000  1.000000  1.000000
 DSYEVD returned Info=          93 IAlg= 4 N=    46 NDim=    46 NE2=    21472416 trying DSYEV.
 Range of M.O.s used for correlation:    13   192
 NBasis=   192 NAE=    24 NBE=    24 NFC=    12 NFV=     0
 NROrb=    180 NOA=    12 NOB=    12 NVA=   168 NVB=   168

 **** Warning!!: The largest alpha MO coefficient is  0.27426253D+02

 Semi-Direct transformation.
 ModeAB=           2 MOrb=            12 LenV=    1072714365
 LASXX=     33405819 LTotXX=    33405819 LenRXX=    33405819
 LTotAB=    33954012 MaxLAS=    56388960 LenRXY=    56388960
 NonZer=    66811638 LenScr=   100987392 LnRSAI=           0
 LnScr1=           0 LExtra=           0 Total=    190782171
 MaxDsk=          -1 SrtSym=           F ITran=            4
 JobTyp=0 Pass  1:  I=   1 to  12.
 (rs|ai) integrals will be sorted in core.
 Spin components of T(2) and E(2):
     alpha-alpha T2 =       0.3512355041D-01 E2=     -0.1016478039D+00
     alpha-beta  T2 =       0.1829010906D+00 E2=     -0.5751020953D+00
     beta-beta   T2 =       0.3512355041D-01 E2=     -0.1016478039D+00
 ANorm=    0.1119441017D+01
 E2 =    -0.7783977032D+00 EUMP2 =    -0.10325817648363D+04
 R2 and R3 integrals will be kept in memory, NReq=   687553722.
 Iterations=  50 Convergence= 0.100D-07
 Iteration Nr.   1
 **********************
 DD1Dir will call FoFMem   1 times, MxPair=       156
 NAB=    78 NAA=     0 NBB=     0.
 MP4(R+Q)=  0.22462614D-01
 E3=       -0.19507297D-01        EUMP3=      -0.10326012721D+04
 E4(DQ)=    0.29763100D-02        UMP4(DQ)=   -0.10325982958D+04
 E4(SDQ)=  -0.58593037D-02        UMP4(SDQ)=  -0.10326071314D+04
 DE(Corr)= -0.77544239     E(Corr)=     -1032.5788095    
 NORM(A)=   0.11211557D+01
 Iteration Nr.   2
 **********************
 DD1Dir will call FoFMem   1 times, MxPair=       156
 NAB=    78 NAA=     0 NBB=     0.
 DE(Corr)= -0.80083216     E(CORR)=     -1032.6041993     Delta=-2.54D-02
 NORM(A)=   0.11304313D+01
 Iteration Nr.   3
 **********************
 DD1Dir will call FoFMem   1 times, MxPair=       156
 NAB=    78 NAA=     0 NBB=     0.
 DE(Corr)= -0.79932106     E(CORR)=     -1032.6026882     Delta= 1.51D-03
 NORM(A)=   0.11329727D+01
 Iteration Nr.   4
 **********************
 DD1Dir will call FoFMem   1 times, MxPair=       156
 NAB=    78 NAA=     0 NBB=     0.
 DE(Corr)= -0.80170388     E(CORR)=     -1032.6050710     Delta=-2.38D-03
 NORM(A)=   0.11339525D+01
 Iteration Nr.   5
 **********************
 DD1Dir will call FoFMem   1 times, MxPair=       156
 NAB=    78 NAA=     0 NBB=     0.
 DE(Corr)= -0.80201020     E(CORR)=     -1032.6053773     Delta=-3.06D-04
 NORM(A)=   0.11343286D+01
 Iteration Nr.   6
 **********************
 DD1Dir will call FoFMem   1 times, MxPair=       156
 NAB=    78 NAA=     0 NBB=     0.
 DE(Corr)= -0.80205903     E(CORR)=     -1032.6054262     Delta=-4.88D-05
 NORM(A)=   0.11343964D+01
 Iteration Nr.   7
 **********************
 DD1Dir will call FoFMem   1 times, MxPair=       156
 NAB=    78 NAA=     0 NBB=     0.
 DE(Corr)= -0.80206782     E(CORR)=     -1032.6054350     Delta=-8.79D-06
 NORM(A)=   0.11343983D+01
 Iteration Nr.   8
 **********************
 DD1Dir will call FoFMem   1 times, MxPair=       156
 NAB=    78 NAA=     0 NBB=     0.
 DE(Corr)= -0.80206707     E(CORR)=     -1032.6054342     Delta= 7.44D-07
 NORM(A)=   0.11344063D+01
 Iteration Nr.   9
 **********************
 DD1Dir will call FoFMem   1 times, MxPair=       156
 NAB=    78 NAA=     0 NBB=     0.
 DE(Corr)= -0.80206616     E(CORR)=     -1032.6054333     Delta= 9.17D-07
 NORM(A)=   0.11344061D+01
 Iteration Nr.  10
 **********************
 DD1Dir will call FoFMem   1 times, MxPair=       156
 NAB=    78 NAA=     0 NBB=     0.
 DE(Corr)= -0.80206719     E(CORR)=     -1032.6054343     Delta=-1.03D-06
 NORM(A)=   0.11344077D+01
 Iteration Nr.  11
 **********************
 DD1Dir will call FoFMem   1 times, MxPair=       156
 NAB=    78 NAA=     0 NBB=     0.
 DE(Corr)= -0.80206808     E(CORR)=     -1032.6054352     Delta=-8.93D-07
 NORM(A)=   0.11344088D+01
 Iteration Nr.  12
 **********************
 DD1Dir will call FoFMem   1 times, MxPair=       156
 NAB=    78 NAA=     0 NBB=     0.
 DE(Corr)= -0.80206828     E(CORR)=     -1032.6054354     Delta=-2.00D-07
 NORM(A)=   0.11344094D+01
 Iteration Nr.  13
 **********************
 DD1Dir will call FoFMem   1 times, MxPair=       156
 NAB=    78 NAA=     0 NBB=     0.
 DE(Corr)= -0.80206860     E(CORR)=     -1032.6054357     Delta=-3.21D-07
 NORM(A)=   0.11344098D+01
 Iteration Nr.  14
 **********************
 DD1Dir will call FoFMem   1 times, MxPair=       156
 NAB=    78 NAA=     0 NBB=     0.
 DE(Corr)= -0.80206866     E(CORR)=     -1032.6054358     Delta=-5.79D-08
 NORM(A)=   0.11344100D+01
 Iteration Nr.  15
 **********************
 DD1Dir will call FoFMem   1 times, MxPair=       156
 NAB=    78 NAA=     0 NBB=     0.
 DE(Corr)= -0.80206870     E(CORR)=     -1032.6054358     Delta=-4.44D-08
 NORM(A)=   0.11344101D+01
 Iteration Nr.  16
 **********************
 DD1Dir will call FoFMem   1 times, MxPair=       156
 NAB=    78 NAA=     0 NBB=     0.
 DE(Corr)= -0.80206872     E(CORR)=     -1032.6054359     Delta=-1.65D-08
 NORM(A)=   0.11344101D+01
 Iteration Nr.  17
 **********************
 DD1Dir will call FoFMem   1 times, MxPair=       156
 NAB=    78 NAA=     0 NBB=     0.
 DE(Corr)= -0.80206872     E(CORR)=     -1032.6054359     Delta= 2.41D-09
 NORM(A)=   0.11344101D+01
 Iteration Nr.  18
 **********************
 DD1Dir will call FoFMem   1 times, MxPair=       156
 NAB=    78 NAA=     0 NBB=     0.
 DE(Corr)= -0.80206872     E(CORR)=     -1032.6054359     Delta=-1.63D-09
 NORM(A)=   0.11344101D+01
 Iteration Nr.  19
 **********************
 DD1Dir will call FoFMem   1 times, MxPair=       156
 NAB=    78 NAA=     0 NBB=     0.
 DE(Corr)= -0.80206872     E(CORR)=     -1032.6054359     Delta= 8.64D-10
 NORM(A)=   0.11344101D+01
 Largest amplitude= 4.27D-02

 Z-AMPLITUDE ITERATIONS

 Iteration Nr.   1
 **********************
 DD1Dir will call FoFMem   1 times, MxPair=       156
 NAB=    78 NAA=     0 NBB=     0.
 DE(Z)  -0.77414632D+00          E(Z)=    -0.10325775135D+04
 NORM(A)=   0.11343315D+01
 Iteration Nr.   2
 **********************
 DD1Dir will call FoFMem   1 times, MxPair=       156
 NAB=    78 NAA=     0 NBB=     0.
 DE(Z)  -0.77414364D+00          E(Z)=    -0.10325775108D+04
 NORM(A)=   0.11343730D+01
 Iteration Nr.   3
 **********************
 DD1Dir will call FoFMem   1 times, MxPair=       156
 NAB=    78 NAA=     0 NBB=     0.
 DE(Z)  -0.77414516D+00          E(Z)=    -0.10325775123D+04
 NORM(A)=   0.11346890D+01
 Iteration Nr.   4
 **********************
 DD1Dir will call FoFMem   1 times, MxPair=       156
 NAB=    78 NAA=     0 NBB=     0.
 DE(Z)  -0.77415546D+00          E(Z)=    -0.10325775226D+04
 NORM(A)=   0.11343191D+01
 Iteration Nr.   5
 **********************
 DD1Dir will call FoFMem   1 times, MxPair=       156
 NAB=    78 NAA=     0 NBB=     0.
 DE(Z)  -0.77414325D+00          E(Z)=    -0.10325775104D+04
 NORM(A)=   0.11247868D+01
 Iteration Nr.   6
 **********************
 DD1Dir will call FoFMem   1 times, MxPair=       156
 NAB=    78 NAA=     0 NBB=     0.
 DE(Z)  -0.77381806D+00          E(Z)=    -0.10325771852D+04
 NORM(A)=   0.11247875D+01
 Iteration Nr.   7
 **********************
 DD1Dir will call FoFMem   1 times, MxPair=       156
 NAB=    78 NAA=     0 NBB=     0.
 DE(Z)  -0.77381766D+00          E(Z)=    -0.10325771848D+04
 NORM(A)=   0.11247880D+01
 Iteration Nr.   8
 **********************
 DD1Dir will call FoFMem   1 times, MxPair=       156
 NAB=    78 NAA=     0 NBB=     0.
 DE(Z)  -0.77381766D+00          E(Z)=    -0.10325771848D+04
 NORM(A)=   0.11247883D+01
 Iteration Nr.   9
 **********************
 DD1Dir will call FoFMem   1 times, MxPair=       156
 NAB=    78 NAA=     0 NBB=     0.
 DE(Z)  -0.77381787D+00          E(Z)=    -0.10325771850D+04
 NORM(A)=   0.11247885D+01
 Iteration Nr.  10
 **********************
 DD1Dir will call FoFMem   1 times, MxPair=       156
 NAB=    78 NAA=     0 NBB=     0.
 DE(Z)  -0.77381779D+00          E(Z)=    -0.10325771849D+04
 NORM(A)=   0.11247886D+01
 Iteration Nr.  11
 **********************
 DD1Dir will call FoFMem   1 times, MxPair=       156
 NAB=    78 NAA=     0 NBB=     0.
 DE(Z)  -0.77381784D+00          E(Z)=    -0.10325771850D+04
 NORM(A)=   0.11247886D+01
 Iteration Nr.  12
 **********************
 DD1Dir will call FoFMem   1 times, MxPair=       156
 NAB=    78 NAA=     0 NBB=     0.
 DE(Z)  -0.77381784D+00          E(Z)=    -0.10325771850D+04
 NORM(A)=   0.11247887D+01
 Iteration Nr.  13
 **********************
 DD1Dir will call FoFMem   1 times, MxPair=       156
 NAB=    78 NAA=     0 NBB=     0.
 DE(Z)  -0.77381784D+00          E(Z)=    -0.10325771850D+04
 NORM(A)=   0.11247887D+01
 Iteration Nr.  14
 **********************
 DD1Dir will call FoFMem   1 times, MxPair=       156
 NAB=    78 NAA=     0 NBB=     0.
 DE(Z)  -0.77381784D+00          E(Z)=    -0.10325771850D+04
 NORM(A)=   0.11247887D+01
 Discarding MO integrals.
          Differentiating once with respect to electric field.
                with respect to dipole field.
          Electric field/nuclear overlap derivatives assumed to be zero.
          Keep R1 ints in memory in canonical form, NReq=342715808.
          There are     1 degrees of freedom in the 1st order CPHF.  IDoFFX=0.
 LinEq1:  Iter=  0 NonCon=     1 RMS=2.33D-03 Max=6.22D-02
 AX will form     1 AO Fock derivatives at one time.
 LinEq1:  Iter=  1 NonCon=     1 RMS=8.26D-04 Max=1.93D-02
 LinEq1:  Iter=  2 NonCon=     1 RMS=3.08D-04 Max=6.28D-03
 LinEq1:  Iter=  3 NonCon=     1 RMS=1.26D-04 Max=3.59D-03
 LinEq1:  Iter=  4 NonCon=     1 RMS=5.01D-05 Max=1.25D-03
 LinEq1:  Iter=  5 NonCon=     1 RMS=1.65D-05 Max=3.86D-04
 LinEq1:  Iter=  6 NonCon=     1 RMS=4.12D-06 Max=5.90D-05
 LinEq1:  Iter=  7 NonCon=     1 RMS=9.71D-07 Max=1.11D-05
 LinEq1:  Iter=  8 NonCon=     1 RMS=2.04D-07 Max=2.95D-06
 LinEq1:  Iter=  9 NonCon=     1 RMS=4.59D-08 Max=8.14D-07
 LinEq1:  Iter= 10 NonCon=     1 RMS=1.15D-08 Max=2.07D-07
 LinEq1:  Iter= 11 NonCon=     1 RMS=2.43D-09 Max=3.64D-08
 LinEq1:  Iter= 12 NonCon=     1 RMS=4.41D-10 Max=1.12D-08
 LinEq1:  Iter= 13 NonCon=     1 RMS=7.47D-11 Max=1.18D-09
 LinEq1:  Iter= 14 NonCon=     0 RMS=1.08D-11 Max=1.24D-10
 Linear equations converged to 1.000D-10 1.000D-09 after    14 iterations.
 End of Minotr Frequency-dependent properties file   721 does not exist.
 End of Minotr Frequency-dependent properties file   722 does not exist.

 **********************************************************************

            Population analysis using the QCI/CC density.

 **********************************************************************

     Natural Orbital Coefficients:
                           1         2         3         4         5
     Eigenvalues --     2.00004   2.00004   2.00003   2.00003   2.00003
   1 1   O  1S          0.00000   0.01088   0.00000   0.00000   0.00000
   2        2S          0.00000  -0.00025   0.00000   0.00000   0.00000
   3        3S          0.00000   0.00050   0.00000   0.00000   0.00000
   4        4S          0.00000   0.00091   0.00000   0.00000   0.00000
   5        5S          0.00000   0.00301   0.00000   0.00000   0.00000
   6        6PX         0.00000   0.00000   0.00000  -0.00105   0.00000
   7        6PY        -0.00018   0.00000   0.00000   0.00000   0.00025
   8        6PZ         0.00000   0.00032   0.00000   0.00000   0.00000
   9        7PX         0.00000   0.00000   0.00000  -0.00157   0.00000
  10        7PY        -0.00100   0.00000   0.00000   0.00000   0.00049
  11        7PZ         0.00000   0.00061   0.00000   0.00000   0.00000
  12        8PX         0.00000   0.00000   0.00000  -0.00148   0.00000
  13        8PY        -0.00358   0.00000   0.00000   0.00000   0.00157
  14        8PZ         0.00000   0.00237   0.00000   0.00000   0.00000
  15        9PX         0.00000   0.00000   0.00000   0.00036   0.00000
  16        9PY        -0.00045   0.00000   0.00000   0.00000   0.00118
  17        9PZ         0.00000   0.00025   0.00000   0.00000   0.00000
  18       10D 0        0.00000   0.00001   0.00000   0.00000   0.00000
  19       10D+1        0.00000   0.00000   0.00000  -0.00003   0.00000
  20       10D-1       -0.00001   0.00000   0.00000   0.00000   0.00003
  21       10D+2        0.00000   0.00003   0.00000   0.00000   0.00000
  22       10D-2        0.00000   0.00000   0.00001   0.00000   0.00000
  23       11D 0        0.00000  -0.00022   0.00000   0.00000   0.00000
  24       11D+1        0.00000   0.00000   0.00000   0.00013   0.00000
  25       11D-1       -0.00007   0.00000   0.00000   0.00000  -0.00009
  26       11D+2        0.00000  -0.00024   0.00000   0.00000   0.00000
  27       11D-2        0.00000   0.00000   0.00002   0.00000   0.00000
  28       12D 0        0.00000  -0.00070   0.00000   0.00000   0.00000
  29       12D+1        0.00000   0.00000   0.00000   0.00014   0.00000
  30       12D-1        0.00053   0.00000   0.00000   0.00000  -0.00028
  31       12D+2        0.00000   0.00020   0.00000   0.00000   0.00000
  32       12D-2        0.00000   0.00000  -0.00084   0.00000   0.00000
  33       13F 0        0.00000   0.00001   0.00000   0.00000   0.00000
  34       13F+1        0.00000   0.00000   0.00000   0.00002   0.00000
  35       13F-1        0.00003   0.00000   0.00000   0.00000  -0.00002
  36       13F+2        0.00000   0.00000   0.00000   0.00000   0.00000
  37       13F-2        0.00000   0.00000  -0.00006   0.00000   0.00000
  38       13F+3        0.00000   0.00000   0.00000   0.00004   0.00000
  39       13F-3        0.00004   0.00000   0.00000   0.00000   0.00000
  40       14F 0        0.00000   0.00010   0.00000   0.00000   0.00000
  41       14F+1        0.00000   0.00000   0.00000  -0.00008   0.00000
  42       14F-1        0.00031   0.00000   0.00000   0.00000   0.00003
  43       14F+2        0.00000   0.00014   0.00000   0.00000   0.00000
  44       14F-2        0.00000   0.00000   0.00020   0.00000   0.00000
  45       14F+3        0.00000   0.00000   0.00000  -0.00017   0.00000
  46       14F-3       -0.00019   0.00000   0.00000   0.00000   0.00004
  47 2   C  1S          0.00000  -0.01121   0.00000   0.00000   0.00000
  48        2S          0.00000   0.00142   0.00000   0.00000   0.00000
  49        3S          0.00000  -0.00014   0.00000   0.00000   0.00000
  50        4S          0.00000  -0.00011   0.00000   0.00000   0.00000
  51        5S          0.00000   0.00126   0.00000   0.00000   0.00000
  52        6PX         0.00000   0.00000   0.00000   0.00166   0.00000
  53        6PY         0.00050   0.00000   0.00000   0.00000  -0.00069
  54        6PZ         0.00000   0.00043   0.00000   0.00000   0.00000
  55        7PX         0.00000   0.00000   0.00000   0.00195   0.00000
  56        7PY         0.00029   0.00000   0.00000   0.00000   0.00015
  57        7PZ         0.00000   0.00189   0.00000   0.00000   0.00000
  58        8PX         0.00000   0.00000   0.00000   0.00087   0.00000
  59        8PY         0.00072   0.00000   0.00000   0.00000   0.00240
  60        8PZ         0.00000  -0.00211   0.00000   0.00000   0.00000
  61        9PX         0.00000   0.00000   0.00000  -0.00073   0.00000
  62        9PY        -0.00042   0.00000   0.00000   0.00000  -0.00112
  63        9PZ         0.00000  -0.00099   0.00000   0.00000   0.00000
  64       10D 0        0.00000  -0.00031   0.00000   0.00000   0.00000
  65       10D+1        0.00000   0.00000   0.00000  -0.00031   0.00000
  66       10D-1        0.00004   0.00000   0.00000   0.00000  -0.00001
  67       10D+2        0.00000  -0.00022   0.00000   0.00000   0.00000
  68       10D-2        0.00000   0.00000   0.00035   0.00000   0.00000
  69       11D 0        0.00000   0.00034   0.00000   0.00000   0.00000
  70       11D+1        0.00000   0.00000   0.00000   0.00023   0.00000
  71       11D-1        0.00024   0.00000   0.00000   0.00000  -0.00154
  72       11D+2        0.00000   0.00064   0.00000   0.00000   0.00000
  73       11D-2        0.00000   0.00000  -0.00009   0.00000   0.00000
  74       12D 0        0.00000  -0.00390   0.00000   0.00000   0.00000
  75       12D+1        0.00000   0.00000   0.00000  -0.00083   0.00000
  76       12D-1        0.00105   0.00000   0.00000   0.00000  -0.00224
  77       12D+2        0.00000  -0.00226   0.00000   0.00000   0.00000
  78       12D-2        0.00000   0.00000   0.00141   0.00000   0.00000
  79       13F 0        0.00000   0.00017   0.00000   0.00000   0.00000
  80       13F+1        0.00000   0.00000   0.00000   0.00007   0.00000
  81       13F-1       -0.00041   0.00000   0.00000   0.00000   0.00002
  82       13F+2        0.00000   0.00002   0.00000   0.00000   0.00000
  83       13F-2        0.00000   0.00000  -0.00011   0.00000   0.00000
  84       13F+3        0.00000   0.00000   0.00000  -0.00008   0.00000
  85       13F-3       -0.00008   0.00000   0.00000   0.00000   0.00000
  86       14F 0        0.00000  -0.00093   0.00000   0.00000   0.00000
  87       14F+1        0.00000   0.00000   0.00000   0.00009   0.00000
  88       14F-1        0.00391   0.00000   0.00000   0.00000  -0.00044
  89       14F+2        0.00000  -0.00008   0.00000   0.00000   0.00000
  90       14F-2        0.00000   0.00000   0.00120   0.00000   0.00000
  91       14F+3        0.00000   0.00000   0.00000   0.00059   0.00000
  92       14F-3        0.00115   0.00000   0.00000   0.00000  -0.00041
  93 3   Cl 1S         -0.00014  -0.00260   0.00000   0.00000  -0.17408
  94        2S          0.00084   0.00915   0.00000   0.00000   0.58763
  95        3S          0.00045   0.00013   0.00000   0.00000  -0.01737
  96        4S          0.00004   0.00052   0.00000   0.00000   0.04558
  97        5S         -0.00054  -0.00105   0.00000   0.00000  -0.00103
  98        6S         -0.00072  -0.00198   0.00000   0.00000  -0.00161
  99        7PX         0.00000   0.00000   0.69251  -0.69203   0.00000
 100        7PY        -0.39598   0.34983   0.00000   0.00000  -0.30641
 101        7PZ         0.56874  -0.59785   0.00000   0.00000  -0.21395
 102        8PX         0.00000   0.00000  -0.01493   0.01340   0.00000
 103        8PY         0.00991  -0.00741   0.00000   0.00000   0.00594
 104        8PZ        -0.01381   0.01381   0.00000   0.00000   0.00432
 105        9PX         0.00000   0.00000   0.03665  -0.03710   0.00000
 106        9PY        -0.02057   0.01823   0.00000   0.00000  -0.01742
 107        9PZ         0.02970  -0.03135   0.00000   0.00000  -0.01219
 108       10PX         0.00000   0.00000  -0.00383   0.00333   0.00000
 109       10PY         0.00306  -0.00156   0.00000   0.00000   0.00168
 110       10PZ        -0.00497   0.00198   0.00000   0.00000   0.00133
 111       11PX         0.00000   0.00000  -0.00057   0.00081   0.00000
 112       11PY         0.00041  -0.00044   0.00000   0.00000   0.00015
 113       11PZ        -0.00065   0.00026   0.00000   0.00000  -0.00009
 114       12D 0        0.00043  -0.00025   0.00000   0.00000  -0.00005
 115       12D+1        0.00000   0.00000   0.00017  -0.00015   0.00000
 116       12D-1        0.00022  -0.00012   0.00000   0.00000   0.00013
 117       12D+2        0.00024  -0.00013   0.00000   0.00000  -0.00005
 118       12D-2        0.00000   0.00000   0.00029  -0.00014   0.00000
 119       13D 0       -0.00189   0.00106   0.00000   0.00000   0.00023
 120       13D+1        0.00000   0.00000  -0.00072   0.00060   0.00000
 121       13D-1       -0.00076   0.00100   0.00000   0.00000   0.00063
 122       13D+2       -0.00082   0.00064   0.00000   0.00000  -0.00038
 123       13D-2        0.00000   0.00000  -0.00105   0.00095   0.00000
 124       14D 0       -0.00005  -0.00075   0.00000   0.00000  -0.00004
 125       14D+1        0.00000   0.00000   0.00042   0.00005   0.00000
 126       14D-1       -0.00005  -0.00019   0.00000   0.00000   0.00028
 127       14D+2        0.00010  -0.00044   0.00000   0.00000   0.00014
 128       14D-2        0.00000   0.00000   0.00025  -0.00010   0.00000
 129       15F 0        0.00000   0.00002   0.00000   0.00000   0.00002
 130       15F+1        0.00000   0.00000  -0.00007  -0.00004   0.00000
 131       15F-1        0.00002   0.00003   0.00000   0.00000   0.00002
 132       15F+2        0.00003   0.00002   0.00000   0.00000  -0.00001
 133       15F-2        0.00000   0.00000   0.00001  -0.00001   0.00000
 134       15F+3        0.00000   0.00000  -0.00001  -0.00001   0.00000
 135       15F-3        0.00002   0.00004   0.00000   0.00000  -0.00001
 136       16F 0       -0.00040  -0.00012   0.00000   0.00000  -0.00013
 137       16F+1        0.00000   0.00000   0.00014   0.00015   0.00000
 138       16F-1       -0.00088   0.00049   0.00000   0.00000   0.00016
 139       16F+2       -0.00006  -0.00028   0.00000   0.00000  -0.00022
 140       16F-2        0.00000   0.00000  -0.00036   0.00032   0.00000
 141       16F+3        0.00000   0.00000   0.00031  -0.00028   0.00000
 142       16F-3       -0.00018   0.00019   0.00000   0.00000  -0.00005
 143 4   Cl 1S          0.00014  -0.00260   0.00000   0.00000   0.17408
 144        2S         -0.00084   0.00915   0.00000   0.00000  -0.58763
 145        3S         -0.00045   0.00013   0.00000   0.00000   0.01737
 146        4S         -0.00004   0.00052   0.00000   0.00000  -0.04558
 147        5S          0.00054  -0.00105   0.00000   0.00000   0.00103
 148        6S          0.00072  -0.00198   0.00000   0.00000   0.00161
 149        7PX         0.00000   0.00000  -0.69251  -0.69203   0.00000
 150        7PY        -0.39598  -0.34983   0.00000   0.00000  -0.30641
 151        7PZ        -0.56874  -0.59785   0.00000   0.00000   0.21395
 152        8PX         0.00000   0.00000   0.01493   0.01340   0.00000
 153        8PY         0.00991   0.00741   0.00000   0.00000   0.00594
 154        8PZ         0.01381   0.01381   0.00000   0.00000  -0.00432
 155        9PX         0.00000   0.00000  -0.03665  -0.03710   0.00000
 156        9PY        -0.02057  -0.01823   0.00000   0.00000  -0.01742
 157        9PZ        -0.02970  -0.03135   0.00000   0.00000   0.01219
 158       10PX         0.00000   0.00000   0.00383   0.00333   0.00000
 159       10PY         0.00306   0.00156   0.00000   0.00000   0.00168
 160       10PZ         0.00497   0.00198   0.00000   0.00000  -0.00133
 161       11PX         0.00000   0.00000   0.00057   0.00081   0.00000
 162       11PY         0.00041   0.00044   0.00000   0.00000   0.00015
 163       11PZ         0.00065   0.00026   0.00000   0.00000   0.00009
 164       12D 0       -0.00043  -0.00025   0.00000   0.00000   0.00005
 165       12D+1        0.00000   0.00000  -0.00017  -0.00015   0.00000
 166       12D-1        0.00022   0.00012   0.00000   0.00000   0.00013
 167       12D+2       -0.00024  -0.00013   0.00000   0.00000   0.00005
 168       12D-2        0.00000   0.00000   0.00029   0.00014   0.00000
 169       13D 0        0.00189   0.00106   0.00000   0.00000  -0.00023
 170       13D+1        0.00000   0.00000   0.00072   0.00060   0.00000
 171       13D-1       -0.00076  -0.00100   0.00000   0.00000   0.00063
 172       13D+2        0.00082   0.00064   0.00000   0.00000   0.00038
 173       13D-2        0.00000   0.00000  -0.00105  -0.00095   0.00000
 174       14D 0        0.00005  -0.00075   0.00000   0.00000   0.00004
 175       14D+1        0.00000   0.00000  -0.00042   0.00005   0.00000
 176       14D-1       -0.00005   0.00019   0.00000   0.00000   0.00028
 177       14D+2       -0.00010  -0.00044   0.00000   0.00000  -0.00014
 178       14D-2        0.00000   0.00000   0.00025   0.00010   0.00000
 179       15F 0        0.00000   0.00002   0.00000   0.00000  -0.00002
 180       15F+1        0.00000   0.00000   0.00007  -0.00004   0.00000
 181       15F-1        0.00002  -0.00003   0.00000   0.00000   0.00002
 182       15F+2       -0.00003   0.00002   0.00000   0.00000   0.00001
 183       15F-2        0.00000   0.00000   0.00001   0.00001   0.00000
 184       15F+3        0.00000   0.00000   0.00001  -0.00001   0.00000
 185       15F-3        0.00002  -0.00004   0.00000   0.00000  -0.00001
 186       16F 0        0.00040  -0.00012   0.00000   0.00000   0.00013
 187       16F+1        0.00000   0.00000  -0.00014   0.00015   0.00000
 188       16F-1       -0.00088  -0.00049   0.00000   0.00000   0.00016
 189       16F+2        0.00006  -0.00028   0.00000   0.00000   0.00022
 190       16F-2        0.00000   0.00000  -0.00036  -0.00032   0.00000
 191       16F+3        0.00000   0.00000  -0.00031  -0.00028   0.00000
 192       16F-3       -0.00018  -0.00019   0.00000   0.00000  -0.00005
                           6         7         8         9        10
     Eigenvalues --     2.00003   2.00001   2.00001   2.00001   2.00000
   1 1   O  1S          0.01425   0.00000   0.26087   0.87623   0.35094
   2        2S         -0.00043   0.00000  -0.00566  -0.01603  -0.00575
   3        3S          0.00057   0.00000   0.01092   0.03731   0.01533
   4        4S          0.00069   0.00000  -0.00035  -0.00317  -0.00096
   5        5S          0.00031   0.00000   0.00191  -0.00095  -0.00160
   6        6PX         0.00000   0.00000   0.00000   0.00000   0.00000
   7        6PY         0.00000  -0.00079   0.00000   0.00000   0.00000
   8        6PZ        -0.00010   0.00000  -0.00183  -0.00376   0.00045
   9        7PX         0.00000   0.00000   0.00000   0.00000   0.00000
  10        7PY         0.00000  -0.00139   0.00000   0.00000   0.00000
  11        7PZ        -0.00023   0.00000  -0.00137  -0.00086   0.00313
  12        8PX         0.00000   0.00000   0.00000   0.00000   0.00000
  13        8PY         0.00000  -0.00428   0.00000   0.00000   0.00000
  14        8PZ        -0.00078   0.00000  -0.00211  -0.00267   0.00273
  15        9PX         0.00000   0.00000   0.00000   0.00000   0.00000
  16        9PY         0.00000  -0.00156   0.00000   0.00000   0.00000
  17        9PZ         0.00017   0.00000  -0.00028  -0.00033   0.00086
  18       10D 0        0.00002   0.00000   0.00011   0.00022   0.00003
  19       10D+1        0.00000   0.00000   0.00000   0.00000   0.00000
  20       10D-1        0.00000  -0.00004   0.00000   0.00000   0.00000
  21       10D+2        0.00000   0.00000   0.00000  -0.00007   0.00000
  22       10D-2        0.00000   0.00000   0.00000   0.00000   0.00000
  23       11D 0        0.00007   0.00000   0.00009  -0.00034  -0.00102
  24       11D+1        0.00000   0.00000   0.00000   0.00000   0.00000
  25       11D-1        0.00000   0.00011   0.00000   0.00000   0.00000
  26       11D+2       -0.00002   0.00000  -0.00017  -0.00003  -0.00012
  27       11D-2        0.00000   0.00000   0.00000   0.00000   0.00000
  28       12D 0        0.00007   0.00000   0.00003   0.00075  -0.00095
  29       12D+1        0.00000   0.00000   0.00000   0.00000   0.00000
  30       12D-1        0.00000   0.00108   0.00000   0.00000   0.00000
  31       12D+2       -0.00021   0.00000  -0.00062   0.00016  -0.00002
  32       12D-2        0.00000   0.00000   0.00000   0.00000   0.00000
  33       13F 0        0.00002   0.00000   0.00011   0.00006  -0.00015
  34       13F+1        0.00000   0.00000   0.00000   0.00000   0.00000
  35       13F-1        0.00000   0.00006   0.00000   0.00000   0.00000
  36       13F+2       -0.00001   0.00000  -0.00002  -0.00001  -0.00003
  37       13F-2        0.00000   0.00000   0.00000   0.00000   0.00000
  38       13F+3        0.00000   0.00000   0.00000   0.00000   0.00000
  39       13F-3        0.00000   0.00000   0.00000   0.00000   0.00000
  40       14F 0        0.00006   0.00000   0.00014  -0.00007   0.00053
  41       14F+1        0.00000   0.00000   0.00000   0.00000   0.00000
  42       14F-1        0.00000  -0.00004   0.00000   0.00000   0.00000
  43       14F+2        0.00008   0.00000   0.00029  -0.00010   0.00018
  44       14F-2        0.00000   0.00000   0.00000   0.00000   0.00000
  45       14F+3        0.00000   0.00000   0.00000   0.00000   0.00000
  46       14F-3        0.00000  -0.00007   0.00000   0.00000   0.00000
  47 2   C  1S         -0.14425   0.00000  -0.61857  -0.10972   0.73924
  48        2S          0.00290   0.00000   0.01078   0.00088  -0.00663
  49        3S         -0.00529   0.00000  -0.02411  -0.00528   0.03213
  50        4S         -0.00623   0.00000  -0.00604   0.00574  -0.01220
  51        5S         -0.00038   0.00000  -0.00256   0.00148  -0.00226
  52        6PX         0.00000   0.00000   0.00000   0.00000   0.00000
  53        6PY         0.00000   0.00242   0.00000   0.00000   0.00000
  54        6PZ        -0.00037   0.00000  -0.00059   0.00100  -0.00196
  55        7PX         0.00000   0.00000   0.00000   0.00000   0.00000
  56        7PY         0.00000  -0.00032   0.00000   0.00000   0.00000
  57        7PZ        -0.00073   0.00000  -0.00139   0.00076   0.00493
  58        8PX         0.00000   0.00000   0.00000   0.00000   0.00000
  59        8PY         0.00000   0.00004   0.00000   0.00000   0.00000
  60        8PZ         0.00245   0.00000   0.00176  -0.00110   0.00407
  61        9PX         0.00000   0.00000   0.00000   0.00000   0.00000
  62        9PY         0.00000   0.00142   0.00000   0.00000   0.00000
  63        9PZ        -0.00029   0.00000   0.00011   0.00016   0.00015
  64       10D 0       -0.00007   0.00000  -0.00027   0.00005   0.00070
  65       10D+1        0.00000   0.00000   0.00000   0.00000   0.00000
  66       10D-1        0.00000  -0.00013   0.00000   0.00000   0.00000
  67       10D+2        0.00006   0.00000   0.00012   0.00003  -0.00016
  68       10D-2        0.00000   0.00000   0.00000   0.00000   0.00000
  69       11D 0       -0.00024   0.00000  -0.00005   0.00090   0.00094
  70       11D+1        0.00000   0.00000   0.00000   0.00000   0.00000
  71       11D-1        0.00000   0.00284   0.00000   0.00000   0.00000
  72       11D+2        0.00089   0.00000   0.00058  -0.00116   0.00326
  73       11D-2        0.00000   0.00000   0.00000   0.00000   0.00000
  74       12D 0       -0.00017   0.00000  -0.00054  -0.00004  -0.00071
  75       12D+1        0.00000   0.00000   0.00000   0.00000   0.00000
  76       12D-1        0.00000   0.00258   0.00000   0.00000   0.00000
  77       12D+2        0.00075   0.00000   0.00103  -0.00085   0.00111
  78       12D-2        0.00000   0.00000   0.00000   0.00000   0.00000
  79       13F 0       -0.00016   0.00000  -0.00031  -0.00016   0.00036
  80       13F+1        0.00000   0.00000   0.00000   0.00000   0.00000
  81       13F-1        0.00000  -0.00007   0.00000   0.00000   0.00000
  82       13F+2       -0.00002   0.00000   0.00010  -0.00007  -0.00009
  83       13F-2        0.00000   0.00000   0.00000   0.00000   0.00000
  84       13F+3        0.00000   0.00000   0.00000   0.00000   0.00000
  85       13F-3        0.00000  -0.00002   0.00000   0.00000   0.00000
  86       14F 0        0.00021   0.00000   0.00105   0.00089  -0.00089
  87       14F+1        0.00000   0.00000   0.00000   0.00000   0.00000
  88       14F-1        0.00000   0.00158   0.00000   0.00000   0.00000
  89       14F+2       -0.00008   0.00000   0.00057   0.00036  -0.00099
  90       14F-2        0.00000   0.00000   0.00000   0.00000   0.00000
  91       14F+3        0.00000   0.00000   0.00000   0.00000   0.00000
  92       14F-3        0.00000   0.00080   0.00000   0.00000   0.00000
  93 3   Cl 1S         -0.17780  -0.11076   0.09038  -0.03818   0.03538
  94        2S          0.59983   0.37570  -0.30844   0.13025  -0.12076
  95        3S         -0.01784  -0.00657   0.00465  -0.00157   0.00078
  96        4S          0.04669   0.03126  -0.02515   0.01098  -0.01083
  97        5S         -0.00194  -0.00637   0.00431  -0.00360   0.00804
  98        6S         -0.00024   0.00281   0.00090  -0.00077   0.00220
  99        7PX         0.00000   0.00000   0.00000   0.00000   0.00000
 100        7PY        -0.29685   0.47578  -0.34637   0.22657  -0.30684
 101        7PZ        -0.16345   0.33077  -0.19904   0.14348  -0.18494
 102        8PX         0.00000   0.00000   0.00000   0.00000   0.00000
 103        8PY         0.00521  -0.00840   0.00513  -0.00341   0.00512
 104        8PZ         0.00284  -0.00629   0.00298  -0.00224   0.00364
 105        9PX         0.00000   0.00000   0.00000   0.00000   0.00000
 106        9PY        -0.01689   0.02903  -0.02110   0.01411  -0.01967
 107        9PZ        -0.00935   0.02035  -0.01215   0.00894  -0.01202
 108       10PX         0.00000   0.00000   0.00000   0.00000   0.00000
 109       10PY         0.00223  -0.00006   0.00111  -0.00096   0.00306
 110       10PZ         0.00116  -0.00056   0.00037  -0.00099   0.00217
 111       11PX         0.00000   0.00000   0.00000   0.00000   0.00000
 112       11PY         0.00003   0.00010   0.00006  -0.00005   0.00019
 113       11PZ         0.00012   0.00026   0.00004  -0.00015   0.00019
 114       12D 0       -0.00005   0.00002  -0.00001   0.00002  -0.00001
 115       12D+1        0.00000   0.00000   0.00000   0.00000   0.00000
 116       12D-1        0.00018   0.00042  -0.00025   0.00025  -0.00035
 117       12D+2       -0.00009  -0.00032   0.00023  -0.00014   0.00021
 118       12D-2        0.00000   0.00000   0.00000   0.00000   0.00000
 119       13D 0       -0.00007  -0.00050  -0.00011   0.00007   0.00008
 120       13D+1        0.00000   0.00000   0.00000   0.00000   0.00000
 121       13D-1        0.00037  -0.00225   0.00088  -0.00094   0.00211
 122       13D+2       -0.00046   0.00120  -0.00104   0.00066  -0.00131
 123       13D-2        0.00000   0.00000   0.00000   0.00000   0.00000
 124       14D 0       -0.00009  -0.00011  -0.00007  -0.00009   0.00008
 125       14D+1        0.00000   0.00000   0.00000   0.00000   0.00000
 126       14D-1        0.00030   0.00013  -0.00026  -0.00016   0.00065
 127       14D+2       -0.00034  -0.00068  -0.00003   0.00007  -0.00052
 128       14D-2        0.00000   0.00000   0.00000   0.00000   0.00000
 129       15F 0        0.00000  -0.00001  -0.00003  -0.00002   0.00002
 130       15F+1        0.00000   0.00000   0.00000   0.00000   0.00000
 131       15F-1        0.00000  -0.00007   0.00001   0.00004  -0.00002
 132       15F+2        0.00000   0.00004  -0.00003  -0.00004  -0.00001
 133       15F-2        0.00000   0.00000   0.00000   0.00000   0.00000
 134       15F+3        0.00000   0.00000   0.00000   0.00000   0.00000
 135       15F-3       -0.00003   0.00002  -0.00007   0.00003  -0.00006
 136       16F 0       -0.00004   0.00028   0.00006   0.00014  -0.00034
 137       16F+1        0.00000   0.00000   0.00000   0.00000   0.00000
 138       16F-1        0.00001  -0.00048  -0.00001  -0.00015   0.00039
 139       16F+2       -0.00016   0.00059  -0.00018   0.00030  -0.00060
 140       16F-2        0.00000   0.00000   0.00000   0.00000   0.00000
 141       16F+3        0.00000   0.00000   0.00000   0.00000   0.00000
 142       16F-3       -0.00011   0.00017  -0.00020   0.00008  -0.00024
 143 4   Cl 1S         -0.17780   0.11076   0.09038  -0.03818   0.03538
 144        2S          0.59983  -0.37570  -0.30844   0.13025  -0.12076
 145        3S         -0.01784   0.00657   0.00465  -0.00157   0.00078
 146        4S          0.04669  -0.03126  -0.02515   0.01098  -0.01083
 147        5S         -0.00194   0.00637   0.00431  -0.00360   0.00804
 148        6S         -0.00024  -0.00281   0.00090  -0.00077   0.00220
 149        7PX         0.00000   0.00000   0.00000   0.00000   0.00000
 150        7PY         0.29685   0.47578   0.34637  -0.22657   0.30684
 151        7PZ        -0.16345  -0.33077  -0.19904   0.14348  -0.18494
 152        8PX         0.00000   0.00000   0.00000   0.00000   0.00000
 153        8PY        -0.00521  -0.00840  -0.00513   0.00341  -0.00512
 154        8PZ         0.00284   0.00629   0.00298  -0.00224   0.00364
 155        9PX         0.00000   0.00000   0.00000   0.00000   0.00000
 156        9PY         0.01689   0.02903   0.02110  -0.01411   0.01967
 157        9PZ        -0.00935  -0.02035  -0.01215   0.00894  -0.01202
 158       10PX         0.00000   0.00000   0.00000   0.00000   0.00000
 159       10PY        -0.00223  -0.00006  -0.00111   0.00096  -0.00306
 160       10PZ         0.00116   0.00056   0.00037  -0.00099   0.00217
 161       11PX         0.00000   0.00000   0.00000   0.00000   0.00000
 162       11PY        -0.00003   0.00010  -0.00006   0.00005  -0.00019
 163       11PZ         0.00012  -0.00026   0.00004  -0.00015   0.00019
 164       12D 0       -0.00005  -0.00002  -0.00001   0.00002  -0.00001
 165       12D+1        0.00000   0.00000   0.00000   0.00000   0.00000
 166       12D-1       -0.00018   0.00042   0.00025  -0.00025   0.00035
 167       12D+2       -0.00009   0.00032   0.00023  -0.00014   0.00021
 168       12D-2        0.00000   0.00000   0.00000   0.00000   0.00000
 169       13D 0       -0.00007   0.00050  -0.00011   0.00007   0.00008
 170       13D+1        0.00000   0.00000   0.00000   0.00000   0.00000
 171       13D-1       -0.00037  -0.00225  -0.00088   0.00094  -0.00211
 172       13D+2       -0.00046  -0.00120  -0.00104   0.00066  -0.00131
 173       13D-2        0.00000   0.00000   0.00000   0.00000   0.00000
 174       14D 0       -0.00009   0.00011  -0.00007  -0.00009   0.00008
 175       14D+1        0.00000   0.00000   0.00000   0.00000   0.00000
 176       14D-1       -0.00030   0.00013   0.00026   0.00016  -0.00065
 177       14D+2       -0.00034   0.00068  -0.00003   0.00007  -0.00052
 178       14D-2        0.00000   0.00000   0.00000   0.00000   0.00000
 179       15F 0        0.00000   0.00001  -0.00003  -0.00002   0.00002
 180       15F+1        0.00000   0.00000   0.00000   0.00000   0.00000
 181       15F-1        0.00000  -0.00007  -0.00001  -0.00004   0.00002
 182       15F+2        0.00000  -0.00004  -0.00003  -0.00004  -0.00001
 183       15F-2        0.00000   0.00000   0.00000   0.00000   0.00000
 184       15F+3        0.00000   0.00000   0.00000   0.00000   0.00000
 185       15F-3        0.00003   0.00002   0.00007  -0.00003   0.00006
 186       16F 0       -0.00004  -0.00028   0.00006   0.00014  -0.00034
 187       16F+1        0.00000   0.00000   0.00000   0.00000   0.00000
 188       16F-1       -0.00001  -0.00048   0.00001   0.00015  -0.00039
 189       16F+2       -0.00016  -0.00059  -0.00018   0.00030  -0.00060
 190       16F-2        0.00000   0.00000   0.00000   0.00000   0.00000
 191       16F+3        0.00000   0.00000   0.00000   0.00000   0.00000
 192       16F-3        0.00011   0.00017   0.00020  -0.00008   0.00024
                          11        12        13        14        15
     Eigenvalues --     2.00000   2.00000   1.98131   1.97614   1.97457
   1 1   O  1S          0.00003   0.00000  -0.18646  -0.06151   0.00000
   2        2S          0.00001   0.00000   0.48217   0.16649   0.00000
   3        3S          0.00000   0.00000   0.13547   0.04785   0.00000
   4        4S          0.00003   0.00000   0.29175   0.13185   0.00000
   5        5S          0.00005   0.00000   0.01909   0.02315   0.00000
   6        6PX         0.00000   0.00000   0.00000   0.00000   0.00000
   7        6PY         0.00000   0.00000   0.00000   0.00000   0.04421
   8        6PZ         0.00000   0.00000  -0.01096   0.02884   0.00000
   9        7PX         0.00000   0.00000   0.00000   0.00000   0.00000
  10        7PY         0.00000   0.00001   0.00000   0.00000   0.05500
  11        7PZ         0.00000   0.00000  -0.01738   0.03079   0.00000
  12        8PX         0.00000   0.00000   0.00000   0.00000   0.00000
  13        8PY         0.00000   0.00006   0.00000   0.00000   0.04012
  14        8PZ         0.00003   0.00000   0.05064   0.02624   0.00000
  15        9PX         0.00000   0.00000   0.00000   0.00000   0.00000
  16        9PY         0.00000   0.00001   0.00000   0.00000   0.00085
  17        9PZ         0.00000   0.00000   0.01417  -0.00041   0.00000
  18       10D 0        0.00000   0.00000   0.00517   0.00002   0.00000
  19       10D+1        0.00000   0.00000   0.00000   0.00000   0.00000
  20       10D-1        0.00000   0.00000   0.00000   0.00000  -0.00216
  21       10D+2        0.00000   0.00000  -0.00001  -0.00002   0.00000
  22       10D-2        0.00000   0.00000   0.00000   0.00000   0.00000
  23       11D 0       -0.00001   0.00000   0.01103   0.00130   0.00000
  24       11D+1        0.00000   0.00000   0.00000   0.00000   0.00000
  25       11D-1        0.00000   0.00000   0.00000   0.00000  -0.00540
  26       11D+2        0.00000   0.00000   0.00027   0.00103   0.00000
  27       11D-2        0.00000   0.00000   0.00000   0.00000   0.00000
  28       12D 0       -0.00002   0.00000  -0.01573  -0.00344   0.00000
  29       12D+1        0.00000   0.00000   0.00000   0.00000   0.00000
  30       12D-1        0.00000  -0.00002   0.00000   0.00000  -0.00401
  31       12D+2        0.00000   0.00000   0.00157   0.00141   0.00000
  32       12D-2        0.00000   0.00000   0.00000   0.00000   0.00000
  33       13F 0        0.00000   0.00000  -0.00280  -0.00031   0.00000
  34       13F+1        0.00000   0.00000   0.00000   0.00000   0.00000
  35       13F-1        0.00000   0.00000   0.00000   0.00000   0.00149
  36       13F+2        0.00000   0.00000   0.00021  -0.00006   0.00000
  37       13F-2        0.00000   0.00000   0.00000   0.00000   0.00000
  38       13F+3        0.00000   0.00000   0.00000   0.00000   0.00000
  39       13F-3        0.00000   0.00000   0.00000   0.00000   0.00008
  40       14F 0        0.00000   0.00000  -0.00005  -0.00054   0.00000
  41       14F+1        0.00000   0.00000   0.00000   0.00000   0.00000
  42       14F-1        0.00000   0.00000   0.00000   0.00000   0.00012
  43       14F+2        0.00000   0.00000  -0.00071  -0.00105   0.00000
  44       14F-2        0.00000   0.00000   0.00000   0.00000   0.00000
  45       14F+3        0.00000   0.00000   0.00000   0.00000   0.00000
  46       14F-3        0.00000   0.00000   0.00000   0.00000   0.00044
  47 2   C  1S         -0.00030   0.00000  -0.08550   0.04550   0.00000
  48        2S          0.00003   0.00000   0.19674  -0.12596   0.00000
  49        3S          0.00002   0.00000   0.04701  -0.02617   0.00000
  50        4S         -0.00013   0.00000   0.00210  -0.05487   0.00000
  51        5S         -0.00005   0.00000  -0.00453  -0.02417   0.00000
  52        6PX         0.00000   0.00000   0.00000   0.00000   0.00000
  53        6PY         0.00000  -0.00001   0.00000   0.00000   0.07111
  54        6PZ         0.00000   0.00000   0.06647   0.05712   0.00000
  55        7PX         0.00000   0.00000   0.00000   0.00000   0.00000
  56        7PY         0.00000   0.00003   0.00000   0.00000   0.09636
  57        7PZ         0.00005   0.00000   0.05129   0.06666   0.00000
  58        8PX         0.00000   0.00000   0.00000   0.00000   0.00000
  59        8PY         0.00000  -0.00009   0.00000   0.00000  -0.00714
  60        8PZ        -0.00001   0.00000  -0.01993  -0.00374   0.00000
  61        9PX         0.00000   0.00000   0.00000   0.00000   0.00000
  62        9PY         0.00000  -0.00001   0.00000   0.00000   0.00600
  63        9PZ         0.00000   0.00000  -0.00752   0.00324   0.00000
  64       10D 0        0.00000   0.00000   0.01605   0.00250   0.00000
  65       10D+1        0.00000   0.00000   0.00000   0.00000   0.00000
  66       10D-1        0.00000   0.00000   0.00000   0.00000  -0.00572
  67       10D+2        0.00000   0.00000  -0.00255   0.00650   0.00000
  68       10D-2        0.00000   0.00000   0.00000   0.00000   0.00000
  69       11D 0       -0.00001   0.00000   0.00586  -0.00241   0.00000
  70       11D+1        0.00000   0.00000   0.00000   0.00000   0.00000
  71       11D-1        0.00000  -0.00007   0.00000   0.00000  -0.01930
  72       11D+2        0.00005   0.00000  -0.00299   0.01145   0.00000
  73       11D-2        0.00000   0.00000   0.00000   0.00000   0.00000
  74       12D 0       -0.00003   0.00000  -0.02058  -0.00801   0.00000
  75       12D+1        0.00000   0.00000   0.00000   0.00000   0.00000
  76       12D-1        0.00000  -0.00001   0.00000   0.00000   0.00433
  77       12D+2        0.00001   0.00000  -0.00120  -0.00278   0.00000
  78       12D-2        0.00000   0.00000   0.00000   0.00000   0.00000
  79       13F 0        0.00000   0.00000   0.00604  -0.00200   0.00000
  80       13F+1        0.00000   0.00000   0.00000   0.00000   0.00000
  81       13F-1        0.00000   0.00000   0.00000   0.00000   0.00239
  82       13F+2       -0.00001   0.00000   0.00254  -0.00424   0.00000
  83       13F-2        0.00000   0.00000   0.00000   0.00000   0.00000
  84       13F+3        0.00000   0.00000   0.00000   0.00000   0.00000
  85       13F-3        0.00000  -0.00001   0.00000   0.00000  -0.00261
  86       14F 0       -0.00003   0.00000  -0.00714  -0.00480   0.00000
  87       14F+1        0.00000   0.00000   0.00000   0.00000   0.00000
  88       14F-1        0.00000  -0.00001   0.00000   0.00000   0.00133
  89       14F+2       -0.00003   0.00000  -0.00301  -0.00583   0.00000
  90       14F-2        0.00000   0.00000   0.00000   0.00000   0.00000
  91       14F+3        0.00000   0.00000   0.00000   0.00000   0.00000
  92       14F-3        0.00000  -0.00001   0.00000   0.00000  -0.00002
  93 3   Cl 1S          0.70404   0.70619   0.01082  -0.04775  -0.05216
  94        2S          0.00700   0.00719  -0.03916   0.17909   0.19513
  95        3S          0.00011   0.00012   0.08883  -0.38117  -0.41800
  96        4S          0.00015   0.00016   0.00998  -0.04688  -0.05252
  97        5S          0.00000  -0.00006   0.04829  -0.22685  -0.25719
  98        6S          0.00001  -0.00007  -0.00314   0.01051   0.00560
  99        7PX         0.00000   0.00000   0.00000   0.00000   0.00000
 100        7PY        -0.00084  -0.00042  -0.00717   0.01496   0.00050
 101        7PZ        -0.00045  -0.00034  -0.00902   0.00171   0.00817
 102        8PX         0.00000   0.00000   0.00000   0.00000   0.00000
 103        8PY         0.00007   0.00006   0.01260  -0.02047   0.01608
 104        8PZ         0.00005   0.00004   0.02290   0.00978  -0.01099
 105        9PX         0.00000   0.00000   0.00000   0.00000   0.00000
 106        9PY        -0.00008  -0.00006   0.00580  -0.00954   0.00667
 107        9PZ        -0.00005  -0.00004   0.00973   0.00362  -0.00513
 108       10PX         0.00000   0.00000   0.00000   0.00000   0.00000
 109       10PY        -0.00001  -0.00007   0.00305   0.00196   0.01606
 110       10PZ        -0.00002  -0.00004   0.00266   0.00921  -0.00108
 111       11PX         0.00000   0.00000   0.00000   0.00000   0.00000
 112       11PY         0.00000  -0.00001  -0.00123   0.00375   0.00219
 113       11PZ         0.00000   0.00000   0.00099   0.00166   0.00260
 114       12D 0        0.00000   0.00000   0.00040   0.00138  -0.00097
 115       12D+1        0.00000   0.00000   0.00000   0.00000   0.00000
 116       12D-1        0.00000   0.00001   0.00340  -0.00582  -0.00584
 117       12D+2        0.00000   0.00000  -0.00259   0.00540   0.00293
 118       12D-2        0.00000   0.00000   0.00000   0.00000   0.00000
 119       13D 0        0.00000   0.00000  -0.00038   0.00209  -0.00247
 120       13D+1        0.00000   0.00000   0.00000   0.00000   0.00000
 121       13D-1        0.00003   0.00002   0.00388  -0.00513  -0.00482
 122       13D+2       -0.00001  -0.00001  -0.00129   0.00599   0.00130
 123       13D-2        0.00000   0.00000   0.00000   0.00000   0.00000
 124       14D 0        0.00000   0.00000   0.00006  -0.00053  -0.00068
 125       14D+1        0.00000   0.00000   0.00000   0.00000   0.00000
 126       14D-1       -0.00001  -0.00002  -0.00189   0.00137   0.00185
 127       14D+2        0.00001   0.00002  -0.00091  -0.00190  -0.00287
 128       14D-2        0.00000   0.00000   0.00000   0.00000   0.00000
 129       15F 0        0.00000   0.00000  -0.00031   0.00138   0.00081
 130       15F+1        0.00000   0.00000   0.00000   0.00000   0.00000
 131       15F-1        0.00000   0.00000   0.00039  -0.00026  -0.00163
 132       15F+2        0.00000   0.00000  -0.00073   0.00219   0.00215
 133       15F-2        0.00000   0.00000   0.00000   0.00000   0.00000
 134       15F+3        0.00000   0.00000   0.00000   0.00000   0.00000
 135       15F-3        0.00000   0.00000  -0.00057   0.00178   0.00080
 136       16F 0        0.00000   0.00000  -0.00047   0.00013  -0.00048
 137       16F+1        0.00000   0.00000   0.00000   0.00000   0.00000
 138       16F-1        0.00000   0.00000  -0.00019   0.00025  -0.00025
 139       16F+2        0.00000   0.00000   0.00013   0.00024  -0.00098
 140       16F-2        0.00000   0.00000   0.00000   0.00000   0.00000
 141       16F+3        0.00000   0.00000   0.00000   0.00000   0.00000
 142       16F-3        0.00000   0.00000   0.00098   0.00009  -0.00070
 143 4   Cl 1S          0.70624  -0.70400   0.01082  -0.04775   0.05216
 144        2S          0.00702  -0.00716  -0.03916   0.17909  -0.19513
 145        3S          0.00011  -0.00012   0.08883  -0.38117   0.41800
 146        4S          0.00015  -0.00016   0.00998  -0.04688   0.05252
 147        5S          0.00000   0.00006   0.04829  -0.22685   0.25719
 148        6S          0.00001   0.00007  -0.00314   0.01051  -0.00560
 149        7PX         0.00000   0.00000   0.00000   0.00000   0.00000
 150        7PY         0.00084  -0.00041   0.00717  -0.01496   0.00050
 151        7PZ        -0.00045   0.00034  -0.00902   0.00171  -0.00817
 152        8PX         0.00000   0.00000   0.00000   0.00000   0.00000
 153        8PY        -0.00007   0.00006  -0.01260   0.02047   0.01608
 154        8PZ         0.00005  -0.00004   0.02290   0.00978   0.01099
 155        9PX         0.00000   0.00000   0.00000   0.00000   0.00000
 156        9PY         0.00008  -0.00006  -0.00580   0.00954   0.00667
 157        9PZ        -0.00005   0.00004   0.00973   0.00362   0.00513
 158       10PX         0.00000   0.00000   0.00000   0.00000   0.00000
 159       10PY         0.00001  -0.00007  -0.00305  -0.00196   0.01606
 160       10PZ        -0.00002   0.00004   0.00266   0.00921   0.00108
 161       11PX         0.00000   0.00000   0.00000   0.00000   0.00000
 162       11PY         0.00000  -0.00001   0.00123  -0.00375   0.00219
 163       11PZ         0.00000   0.00000   0.00099   0.00166  -0.00260
 164       12D 0        0.00000   0.00000   0.00040   0.00138   0.00097
 165       12D+1        0.00000   0.00000   0.00000   0.00000   0.00000
 166       12D-1        0.00000   0.00001  -0.00340   0.00582  -0.00584
 167       12D+2        0.00000   0.00000  -0.00259   0.00540  -0.00293
 168       12D-2        0.00000   0.00000   0.00000   0.00000   0.00000
 169       13D 0        0.00000   0.00000  -0.00038   0.00209   0.00247
 170       13D+1        0.00000   0.00000   0.00000   0.00000   0.00000
 171       13D-1       -0.00003   0.00002  -0.00388   0.00513  -0.00482
 172       13D+2       -0.00001   0.00001  -0.00129   0.00599  -0.00130
 173       13D-2        0.00000   0.00000   0.00000   0.00000   0.00000
 174       14D 0        0.00000   0.00000   0.00006  -0.00053   0.00068
 175       14D+1        0.00000   0.00000   0.00000   0.00000   0.00000
 176       14D-1        0.00001  -0.00002   0.00189  -0.00137   0.00185
 177       14D+2        0.00001  -0.00002  -0.00091  -0.00190   0.00287
 178       14D-2        0.00000   0.00000   0.00000   0.00000   0.00000
 179       15F 0        0.00000   0.00000  -0.00031   0.00138  -0.00081
 180       15F+1        0.00000   0.00000   0.00000   0.00000   0.00000
 181       15F-1        0.00000   0.00000  -0.00039   0.00026  -0.00163
 182       15F+2        0.00000   0.00000  -0.00073   0.00219  -0.00215
 183       15F-2        0.00000   0.00000   0.00000   0.00000   0.00000
 184       15F+3        0.00000   0.00000   0.00000   0.00000   0.00000
 185       15F-3        0.00000   0.00000   0.00057  -0.00178   0.00080
 186       16F 0        0.00000   0.00000  -0.00047   0.00013   0.00048
 187       16F+1        0.00000   0.00000   0.00000   0.00000   0.00000
 188       16F-1        0.00000   0.00000   0.00019  -0.00025  -0.00025
 189       16F+2        0.00000   0.00000   0.00013   0.00024   0.00098
 190       16F-2        0.00000   0.00000   0.00000   0.00000   0.00000
 191       16F+3        0.00000   0.00000   0.00000   0.00000   0.00000
 192       16F-3        0.00000   0.00000  -0.00098  -0.00009  -0.00070
                          16        17        18        19        20
     Eigenvalues --     1.96325   1.95792   1.95159   1.94911   1.94743
   1 1   O  1S          0.04013   0.00000  -0.00866   0.00000   0.00000
   2        2S         -0.13034   0.00000   0.02245   0.00000   0.00000
   3        3S         -0.04253   0.00000   0.00698   0.00000   0.00000
   4        4S         -0.24311   0.00000   0.02488   0.00000   0.00000
   5        5S         -0.06014   0.00000   0.02422   0.00000   0.00000
   6        6PX         0.00000   0.00000   0.00000   0.03118   0.00000
   7        6PY         0.00000   0.29806   0.00000   0.00000   0.11019
   8        6PZ        -0.29848   0.00000  -0.00823   0.00000   0.00000
   9        7PX         0.00000   0.00000   0.00000   0.03936   0.00000
  10        7PY         0.00000   0.37024   0.00000   0.00000   0.13460
  11        7PZ        -0.35230   0.00000  -0.01150   0.00000   0.00000
  12        8PX         0.00000   0.00000   0.00000   0.02001   0.00000
  13        8PY         0.00000   0.27014   0.00000   0.00000   0.09328
  14        8PZ        -0.15079   0.00000  -0.00040   0.00000   0.00000
  15        9PX         0.00000   0.00000   0.00000  -0.01177   0.00000
  16        9PY         0.00000   0.03711   0.00000   0.00000   0.01475
  17        9PZ         0.00138   0.00000   0.00087   0.00000   0.00000
  18       10D 0        0.01338   0.00000   0.00025   0.00000   0.00000
  19       10D+1        0.00000   0.00000   0.00000  -0.00331   0.00000
  20       10D-1        0.00000  -0.00923   0.00000   0.00000  -0.00206
  21       10D+2       -0.00002   0.00000   0.00058   0.00000   0.00000
  22       10D-2        0.00000   0.00000   0.00000   0.00000   0.00000
  23       11D 0        0.02644   0.00000   0.00148   0.00000   0.00000
  24       11D+1        0.00000   0.00000   0.00000  -0.00911   0.00000
  25       11D-1        0.00000  -0.02665   0.00000   0.00000  -0.00265
  26       11D+2        0.00117   0.00000   0.00047   0.00000   0.00000
  27       11D-2        0.00000   0.00000   0.00000   0.00000   0.00000
  28       12D 0       -0.00418   0.00000  -0.00125   0.00000   0.00000
  29       12D+1        0.00000   0.00000   0.00000  -0.00712   0.00000
  30       12D-1        0.00000  -0.01719   0.00000   0.00000  -0.00141
  31       12D+2        0.00225   0.00000   0.00226   0.00000   0.00000
  32       12D-2        0.00000   0.00000   0.00000   0.00000   0.00000
  33       13F 0       -0.00478   0.00000  -0.00006   0.00000   0.00000
  34       13F+1        0.00000   0.00000   0.00000   0.00174   0.00000
  35       13F-1        0.00000   0.00570   0.00000   0.00000   0.00096
  36       13F+2       -0.00068   0.00000  -0.00016   0.00000   0.00000
  37       13F-2        0.00000   0.00000   0.00000   0.00000   0.00000
  38       13F+3        0.00000   0.00000   0.00000  -0.00001   0.00000
  39       13F-3        0.00000   0.00089   0.00000   0.00000   0.00045
  40       14F 0       -0.00403   0.00000  -0.00026   0.00000   0.00000
  41       14F+1        0.00000   0.00000   0.00000   0.00111   0.00000
  42       14F-1        0.00000   0.00420   0.00000   0.00000  -0.00007
  43       14F+2       -0.00163   0.00000   0.00030   0.00000   0.00000
  44       14F-2        0.00000   0.00000   0.00000   0.00000   0.00000
  45       14F+3        0.00000   0.00000   0.00000   0.00076   0.00000
  46       14F-3        0.00000   0.00104   0.00000   0.00000   0.00012
  47 2   C  1S         -0.11246   0.00000  -0.03446   0.00000   0.00000
  48        2S          0.30659   0.00000   0.09679   0.00000   0.00000
  49        3S          0.08038   0.00000   0.02407   0.00000   0.00000
  50        4S          0.10222   0.00000   0.04904   0.00000   0.00000
  51        5S          0.00860   0.00000   0.01294   0.00000   0.00000
  52        6PX         0.00000   0.00000   0.00000   0.11179   0.00000
  53        6PY         0.00000   0.14663   0.00000   0.00000   0.01634
  54        6PZ         0.15010   0.00000  -0.04658   0.00000   0.00000
  55        7PX         0.00000   0.00000   0.00000   0.15381   0.00000
  56        7PY         0.00000   0.18963   0.00000   0.00000   0.02446
  57        7PZ         0.15887   0.00000  -0.06769   0.00000   0.00000
  58        8PX         0.00000   0.00000   0.00000   0.04590   0.00000
  59        8PY         0.00000   0.01627   0.00000   0.00000   0.00543
  60        8PZ        -0.00355   0.00000  -0.02674   0.00000   0.00000
  61        9PX         0.00000   0.00000   0.00000   0.01280   0.00000
  62        9PY         0.00000  -0.00865   0.00000   0.00000  -0.00971
  63        9PZ        -0.00252   0.00000  -0.01094   0.00000   0.00000
  64       10D 0        0.01641   0.00000   0.01079   0.00000   0.00000
  65       10D+1        0.00000   0.00000   0.00000  -0.00424   0.00000
  66       10D-1        0.00000   0.02120   0.00000   0.00000   0.00417
  67       10D+2        0.00018   0.00000   0.00407   0.00000   0.00000
  68       10D-2        0.00000   0.00000   0.00000   0.00000   0.00000
  69       11D 0        0.00124   0.00000   0.03283   0.00000   0.00000
  70       11D+1        0.00000   0.00000   0.00000  -0.02681   0.00000
  71       11D-1        0.00000   0.01919   0.00000   0.00000   0.00284
  72       11D+2       -0.00391   0.00000   0.01577   0.00000   0.00000
  73       11D-2        0.00000   0.00000   0.00000   0.00000   0.00000
  74       12D 0       -0.00004   0.00000  -0.02313   0.00000   0.00000
  75       12D+1        0.00000   0.00000   0.00000  -0.00830   0.00000
  76       12D-1        0.00000  -0.01602   0.00000   0.00000   0.01347
  77       12D+2        0.00435   0.00000  -0.01716   0.00000   0.00000
  78       12D-2        0.00000   0.00000   0.00000   0.00000   0.00000
  79       13F 0        0.00944   0.00000  -0.00076   0.00000   0.00000
  80       13F+1        0.00000   0.00000   0.00000   0.00263   0.00000
  81       13F-1        0.00000   0.00525   0.00000   0.00000   0.00851
  82       13F+2        0.00165   0.00000   0.00157   0.00000   0.00000
  83       13F-2        0.00000   0.00000   0.00000   0.00000   0.00000
  84       13F+3        0.00000   0.00000   0.00000  -0.00472   0.00000
  85       13F-3        0.00000  -0.00287   0.00000   0.00000   0.00147
  86       14F 0       -0.01093   0.00000  -0.00488   0.00000   0.00000
  87       14F+1        0.00000   0.00000   0.00000  -0.00044   0.00000
  88       14F-1        0.00000   0.00144   0.00000   0.00000   0.01439
  89       14F+2       -0.00342   0.00000  -0.00111   0.00000   0.00000
  90       14F-2        0.00000   0.00000   0.00000   0.00000   0.00000
  91       14F+3        0.00000   0.00000   0.00000  -0.00319   0.00000
  92       14F-3        0.00000   0.00070   0.00000   0.00000   0.00346
  93 3   Cl 1S         -0.01170   0.01516  -0.01021   0.00000  -0.00134
  94        2S          0.04541  -0.05774   0.03879   0.00000   0.00521
  95        3S         -0.09199   0.12364  -0.08408   0.00000  -0.01050
  96        4S         -0.01235   0.01715  -0.01316   0.00000  -0.00215
  97        5S         -0.07739   0.11940  -0.07858   0.00000  -0.01034
  98        6S         -0.00775   0.00840  -0.02238   0.00000  -0.01206
  99        7PX         0.00000   0.00000   0.00000  -0.14756   0.00000
 100        7PY        -0.00253   0.00411  -0.10665   0.00000   0.09145
 101        7PZ        -0.01303   0.04344   0.10995   0.00000  -0.13983
 102        8PX         0.00000   0.00000   0.00000   0.34768   0.00000
 103        8PY         0.00268   0.00308   0.24675   0.00000  -0.21370
 104        8PZ         0.02860  -0.09477  -0.26233   0.00000   0.33167
 105        9PX         0.00000   0.00000   0.00000   0.16235   0.00000
 106        9PY         0.00305  -0.00275   0.11650   0.00000  -0.10350
 107        9PZ         0.01475  -0.04746  -0.12561   0.00000   0.15724
 108       10PX         0.00000   0.00000   0.00000   0.19568   0.00000
 109       10PY        -0.01546   0.03097   0.12821   0.00000  -0.13622
 110       10PZ         0.00468  -0.03747  -0.17752   0.00000   0.20791
 111       11PX         0.00000   0.00000   0.00000   0.00091   0.00000
 112       11PY        -0.00079   0.00446   0.00047   0.00000  -0.00675
 113       11PZ         0.00005   0.00258  -0.00762   0.00000   0.01054
 114       12D 0        0.00311  -0.00562  -0.00682   0.00000   0.00098
 115       12D+1        0.00000   0.00000   0.00000   0.00561   0.00000
 116       12D-1        0.00523  -0.01025   0.00131   0.00000  -0.00142
 117       12D+2       -0.00080   0.00439  -0.00910   0.00000   0.00063
 118       12D-2        0.00000   0.00000   0.00000   0.01055   0.00000
 119       13D 0        0.00219  -0.00858  -0.00838   0.00000  -0.00069
 120       13D+1        0.00000   0.00000   0.00000   0.00836   0.00000
 121       13D-1        0.00508  -0.00671   0.00093   0.00000  -0.00084
 122       13D+2        0.00190   0.00043  -0.01121   0.00000  -0.00163
 123       13D-2        0.00000   0.00000   0.00000   0.01628   0.00000
 124       14D 0        0.00241  -0.00604  -0.00800   0.00000   0.00149
 125       14D+1        0.00000   0.00000   0.00000   0.00188   0.00000
 126       14D-1       -0.00033  -0.00163  -0.00329   0.00000   0.00143
 127       14D+2        0.00313  -0.00296  -0.00564   0.00000   0.00045
 128       14D-2        0.00000   0.00000   0.00000   0.00524   0.00000
 129       15F 0        0.00038  -0.00027  -0.00191   0.00000   0.00086
 130       15F+1        0.00000   0.00000   0.00000   0.00056   0.00000
 131       15F-1        0.00134  -0.00356  -0.00395   0.00000   0.00272
 132       15F+2       -0.00023   0.00225  -0.00124   0.00000   0.00034
 133       15F-2        0.00000   0.00000   0.00000   0.00438   0.00000
 134       15F+3        0.00000   0.00000   0.00000  -0.00426   0.00000
 135       15F-3        0.00036   0.00049  -0.00311   0.00000   0.00092
 136       16F 0       -0.00163  -0.00138  -0.00054   0.00000  -0.00043
 137       16F+1        0.00000   0.00000   0.00000  -0.00043   0.00000
 138       16F-1       -0.00006  -0.00052  -0.00208   0.00000   0.00148
 139       16F+2       -0.00024  -0.00212  -0.00057   0.00000  -0.00055
 140       16F-2        0.00000   0.00000   0.00000   0.00226   0.00000
 141       16F+3        0.00000   0.00000   0.00000  -0.00243   0.00000
 142       16F-3        0.00122  -0.00160  -0.00112   0.00000  -0.00055
 143 4   Cl 1S         -0.01170  -0.01516  -0.01021   0.00000   0.00134
 144        2S          0.04541   0.05774   0.03879   0.00000  -0.00521
 145        3S         -0.09199  -0.12364  -0.08408   0.00000   0.01050
 146        4S         -0.01235  -0.01715  -0.01316   0.00000   0.00215
 147        5S         -0.07739  -0.11940  -0.07858   0.00000   0.01034
 148        6S         -0.00775  -0.00840  -0.02238   0.00000   0.01206
 149        7PX         0.00000   0.00000   0.00000  -0.14756   0.00000
 150        7PY         0.00253   0.00411   0.10665   0.00000   0.09145
 151        7PZ        -0.01303  -0.04344   0.10995   0.00000   0.13983
 152        8PX         0.00000   0.00000   0.00000   0.34768   0.00000
 153        8PY        -0.00268   0.00308  -0.24675   0.00000  -0.21370
 154        8PZ         0.02860   0.09477  -0.26233   0.00000  -0.33167
 155        9PX         0.00000   0.00000   0.00000   0.16235   0.00000
 156        9PY        -0.00305  -0.00275  -0.11650   0.00000  -0.10350
 157        9PZ         0.01475   0.04746  -0.12561   0.00000  -0.15724
 158       10PX         0.00000   0.00000   0.00000   0.19568   0.00000
 159       10PY         0.01546   0.03097  -0.12821   0.00000  -0.13622
 160       10PZ         0.00468   0.03747  -0.17752   0.00000  -0.20791
 161       11PX         0.00000   0.00000   0.00000   0.00091   0.00000
 162       11PY         0.00079   0.00446  -0.00047   0.00000  -0.00675
 163       11PZ         0.00005  -0.00258  -0.00762   0.00000  -0.01054
 164       12D 0        0.00311   0.00562  -0.00682   0.00000  -0.00098
 165       12D+1        0.00000   0.00000   0.00000   0.00561   0.00000
 166       12D-1       -0.00523  -0.01025  -0.00131   0.00000  -0.00142
 167       12D+2       -0.00080  -0.00439  -0.00910   0.00000  -0.00063
 168       12D-2        0.00000   0.00000   0.00000  -0.01055   0.00000
 169       13D 0        0.00219   0.00858  -0.00838   0.00000   0.00069
 170       13D+1        0.00000   0.00000   0.00000   0.00836   0.00000
 171       13D-1       -0.00508  -0.00671  -0.00093   0.00000  -0.00084
 172       13D+2        0.00190  -0.00043  -0.01121   0.00000   0.00163
 173       13D-2        0.00000   0.00000   0.00000  -0.01628   0.00000
 174       14D 0        0.00241   0.00604  -0.00800   0.00000  -0.00149
 175       14D+1        0.00000   0.00000   0.00000   0.00188   0.00000
 176       14D-1        0.00033  -0.00163   0.00329   0.00000   0.00143
 177       14D+2        0.00313   0.00296  -0.00564   0.00000  -0.00045
 178       14D-2        0.00000   0.00000   0.00000  -0.00524   0.00000
 179       15F 0        0.00038   0.00027  -0.00191   0.00000  -0.00086
 180       15F+1        0.00000   0.00000   0.00000   0.00056   0.00000
 181       15F-1       -0.00134  -0.00356   0.00395   0.00000   0.00272
 182       15F+2       -0.00023  -0.00225  -0.00124   0.00000  -0.00034
 183       15F-2        0.00000   0.00000   0.00000  -0.00438   0.00000
 184       15F+3        0.00000   0.00000   0.00000  -0.00426   0.00000
 185       15F-3       -0.00036   0.00049   0.00311   0.00000   0.00092
 186       16F 0       -0.00163   0.00138  -0.00054   0.00000   0.00043
 187       16F+1        0.00000   0.00000   0.00000  -0.00043   0.00000
 188       16F-1        0.00006  -0.00052   0.00208   0.00000   0.00148
 189       16F+2       -0.00024   0.00212  -0.00057   0.00000   0.00055
 190       16F-2        0.00000   0.00000   0.00000  -0.00226   0.00000
 191       16F+3        0.00000   0.00000   0.00000  -0.00243   0.00000
 192       16F-3       -0.00122  -0.00160   0.00112   0.00000  -0.00055
                          21        22        23        24        25
     Eigenvalues --     1.94727   1.94723   1.93661   1.93220   0.06553
   1 1   O  1S          0.00000  -0.02767   0.00000   0.00000   0.00000
   2        2S          0.00000   0.07495   0.00000   0.00000   0.00000
   3        3S          0.00000   0.02138   0.00000   0.00000   0.00000
   4        4S          0.00000   0.03083   0.00000   0.00000   0.00000
   5        5S          0.00000   0.00113   0.00000   0.00000   0.00000
   6        6PX         0.00000   0.00000   0.00000   0.29489  -0.34547
   7        6PY         0.00000   0.00000  -0.14112   0.00000   0.00000
   8        6PZ         0.00000  -0.09825   0.00000   0.00000   0.00000
   9        7PX         0.00000   0.00000   0.00000   0.36945  -0.39766
  10        7PY         0.00000   0.00000  -0.17563   0.00000   0.00000
  11        7PZ         0.00000  -0.11938   0.00000   0.00000   0.00000
  12        8PX         0.00000   0.00000   0.00000   0.24585  -0.07492
  13        8PY         0.00000   0.00000  -0.12128   0.00000   0.00000
  14        8PZ         0.00000  -0.03606   0.00000   0.00000   0.00000
  15        9PX         0.00000   0.00000   0.00000   0.02547  -0.00504
  16        9PY         0.00000   0.00000  -0.02161   0.00000   0.00000
  17        9PZ         0.00000   0.00378   0.00000   0.00000   0.00000
  18       10D 0        0.00000   0.00463   0.00000   0.00000   0.00000
  19       10D+1        0.00000   0.00000   0.00000  -0.01055  -0.01347
  20       10D-1        0.00000   0.00000   0.00022   0.00000   0.00000
  21       10D+2        0.00000   0.00002   0.00000   0.00000   0.00000
  22       10D-2       -0.00039   0.00000   0.00000   0.00000   0.00000
  23       11D 0        0.00000   0.00871   0.00000   0.00000   0.00000
  24       11D+1        0.00000   0.00000   0.00000  -0.02846  -0.01074
  25       11D-1        0.00000   0.00000  -0.00003   0.00000   0.00000
  26       11D+2        0.00000   0.00206   0.00000   0.00000   0.00000
  27       11D-2       -0.00177   0.00000   0.00000   0.00000   0.00000
  28       12D 0        0.00000  -0.01256   0.00000   0.00000   0.00000
  29       12D+1        0.00000   0.00000   0.00000  -0.01231   0.01718
  30       12D-1        0.00000   0.00000  -0.00753   0.00000   0.00000
  31       12D+2        0.00000   0.00227   0.00000   0.00000   0.00000
  32       12D-2       -0.00392   0.00000   0.00000   0.00000   0.00000
  33       13F 0        0.00000  -0.00180   0.00000   0.00000   0.00000
  34       13F+1        0.00000   0.00000   0.00000   0.00548   0.00384
  35       13F-1        0.00000   0.00000   0.00020   0.00000   0.00000
  36       13F+2        0.00000  -0.00047   0.00000   0.00000   0.00000
  37       13F-2        0.00034   0.00000   0.00000   0.00000   0.00000
  38       13F+3        0.00000   0.00000   0.00000   0.00103  -0.00248
  39       13F-3        0.00000   0.00000  -0.00044   0.00000   0.00000
  40       14F 0        0.00000  -0.00186   0.00000   0.00000   0.00000
  41       14F+1        0.00000   0.00000   0.00000   0.00344  -0.00548
  42       14F-1        0.00000   0.00000  -0.00078   0.00000   0.00000
  43       14F+2        0.00000  -0.00234   0.00000   0.00000   0.00000
  44       14F-2        0.00122   0.00000   0.00000   0.00000   0.00000
  45       14F+3        0.00000   0.00000   0.00000   0.00088  -0.00066
  46       14F-3        0.00000   0.00000  -0.00020   0.00000   0.00000
  47 2   C  1S          0.00000   0.07849   0.00000   0.00000   0.00000
  48        2S          0.00000  -0.22408   0.00000   0.00000   0.00000
  49        3S          0.00000  -0.04835   0.00000   0.00000   0.00000
  50        4S          0.00000  -0.16635   0.00000   0.00000   0.00000
  51        5S          0.00000  -0.02040   0.00000   0.00000   0.00000
  52        6PX         0.00000   0.00000   0.00000   0.17262   0.30835
  53        6PY         0.00000   0.00000   0.13728   0.00000   0.00000
  54        6PZ         0.00000   0.17287   0.00000   0.00000   0.00000
  55        7PX         0.00000   0.00000   0.00000   0.21843   0.46933
  56        7PY         0.00000   0.00000   0.19607   0.00000   0.00000
  57        7PZ         0.00000   0.22193   0.00000   0.00000   0.00000
  58        8PX         0.00000   0.00000   0.00000   0.08125   0.15574
  59        8PY         0.00000   0.00000   0.02821   0.00000   0.00000
  60        8PZ         0.00000   0.03264   0.00000   0.00000   0.00000
  61        9PX         0.00000   0.00000   0.00000  -0.00201   0.01083
  62        9PY         0.00000   0.00000  -0.00026   0.00000   0.00000
  63        9PZ         0.00000  -0.00725   0.00000   0.00000   0.00000
  64       10D 0        0.00000   0.01269   0.00000   0.00000   0.00000
  65       10D+1        0.00000   0.00000   0.00000   0.02437  -0.00012
  66       10D-1        0.00000   0.00000  -0.02907   0.00000   0.00000
  67       10D+2        0.00000   0.00939   0.00000   0.00000   0.00000
  68       10D-2       -0.01026   0.00000   0.00000   0.00000   0.00000
  69       11D 0        0.00000   0.00843   0.00000   0.00000   0.00000
  70       11D+1        0.00000   0.00000   0.00000   0.03743   0.02437
  71       11D-1        0.00000   0.00000  -0.07242   0.00000   0.00000
  72       11D+2        0.00000   0.01815   0.00000   0.00000   0.00000
  73       11D-2       -0.03243   0.00000   0.00000   0.00000   0.00000
  74       12D 0        0.00000  -0.03054   0.00000   0.00000   0.00000
  75       12D+1        0.00000   0.00000   0.00000  -0.00646   0.01373
  76       12D-1        0.00000   0.00000  -0.02040   0.00000   0.00000
[...]
  73       11D-2        0.00000   0.00000   0.00000   0.00000   0.00000
  74       12D 0        0.00000   1.23442   0.00000   0.00000   0.00000
  75       12D+1        0.00000   0.00000   0.72086   0.00000   0.00000
  76       12D-1        7.00967   0.00000   0.00000  -2.52537   0.73353
  77       12D+2        0.00000   1.41850   0.00000   0.00000   0.00000
  78       12D-2        0.00000   0.00000   0.00000   0.00000   0.00000
  79       13F 0        0.00000  -0.05584   0.00000   0.00000   0.00000
  80       13F+1        0.00000   0.00000  -0.09327   0.00000   0.00000
  81       13F-1       -0.02276   0.00000   0.00000  -0.07684  -0.02852
  82       13F+2        0.00000  -0.03868   0.00000   0.00000   0.00000
  83       13F-2        0.00000   0.00000   0.00000   0.00000   0.00000
  84       13F+3        0.00000   0.00000   0.03768   0.00000   0.00000
  85       13F-3       -0.00728   0.00000   0.00000   0.00810   0.01898
  86       14F 0        0.00000   0.11327   0.00000   0.00000   0.00000
  87       14F+1        0.00000   0.00000  -0.17709   0.00000   0.00000
  88       14F-1        0.42233   0.00000   0.00000  -0.15421  -0.21379
  89       14F+2        0.00000   0.26366   0.00000   0.00000   0.00000
  90       14F-2        0.00000   0.00000   0.00000   0.00000   0.00000
  91       14F+3        0.00000   0.00000   0.01750   0.00000   0.00000
  92       14F-3        0.18819   0.00000   0.00000  -0.17664  -0.11792
  93 3   Cl 1S          0.02837  -0.01486   0.00000  -0.01322   0.00765
  94        2S          0.45482  -0.22383   0.00000  -0.17670   0.13876
  95        3S          1.14289  -0.58465   0.00000  -0.50690   0.31543
  96        4S         -0.22619   0.09634   0.00000   0.00238  -0.13644
  97        5S         -6.65418   1.72181   0.00000   3.77536  -0.58264
  98        6S         -2.73936   1.63360   0.00000  12.65225   2.60121
  99        7PX         0.00000   0.00000  -0.01667   0.00000   0.00000
 100        7PY         0.00664   0.00292   0.00000  -0.01286  -0.00230
 101        7PZ        -0.01072  -0.00839   0.00000   0.00084   0.00503
 102        8PX         0.00000   0.00000  -0.21173   0.00000   0.00000
 103        8PY        -0.00448   0.04296   0.00000  -0.22194   0.04477
 104        8PZ        -0.27436  -0.10263   0.00000  -0.00565   0.10979
 105        9PX         0.00000   0.00000   0.06473   0.00000   0.00000
 106        9PY        -0.01876  -0.02698   0.00000   0.04800   0.01117
 107        9PZ         0.04382   0.01704   0.00000  -0.00650  -0.01846
 108       10PX         0.00000   0.00000   0.91540   0.00000   0.00000
 109       10PY        -3.24861   0.46151   0.00000   4.77236   0.09147
 110       10PZ        -1.06194   1.91914   0.00000   3.43850   0.29299
 111       11PX         0.00000   0.00000  -2.23747   0.00000   0.00000
 112       11PY        -0.46120  -0.63524   0.00000   2.61697  -2.76635
 113       11PZ         0.29896  -2.01313   0.00000   1.50579   0.89344
 114       12D 0        0.00659  -0.04255   0.00000  -0.02139   0.00427
 115       12D+1        0.00000   0.00000  -0.02668   0.00000   0.00000
 116       12D-1        0.05070  -0.08322   0.00000   0.01968  -0.01276
 117       12D+2       -0.01150   0.06956   0.00000  -0.04016   0.05512
 118       12D-2        0.00000   0.00000  -0.00988   0.00000   0.00000
 119       13D 0       -0.11388   0.17140   0.00000   0.12306   0.00487
 120       13D+1        0.00000   0.00000   0.08392   0.00000   0.00000
 121       13D-1       -0.37910   0.36439   0.00000   0.03873   0.13912
 122       13D+2        0.12909  -0.28162   0.00000   0.10101  -0.25637
 123       13D-2        0.00000   0.00000   0.03651   0.00000   0.00000
 124       14D 0        0.57114   0.25204   0.00000   0.03157   0.27325
 125       14D+1        0.00000   0.00000  -0.07600   0.00000   0.00000
 126       14D-1       -0.16465   0.13500   0.00000   1.57331   0.03421
 127       14D+2        0.24140   0.35481   0.00000  -1.12918   0.58394
 128       14D-2        0.00000   0.00000   0.18353   0.00000   0.00000
 129       15F 0       -0.03364  -0.00109   0.00000   0.00698   0.01392
 130       15F+1        0.00000   0.00000  -0.00593   0.00000   0.00000
 131       15F-1       -0.00612  -0.04295   0.00000  -0.04610  -0.00934
 132       15F+2       -0.00081   0.03057   0.00000   0.01194   0.00475
 133       15F-2        0.00000   0.00000  -0.01712   0.00000   0.00000
 134       15F+3        0.00000   0.00000   0.04211   0.00000   0.00000
 135       15F-3        0.03047  -0.00065   0.00000  -0.00916   0.01010
 136       16F 0        0.13653   0.00454   0.00000  -0.03609  -0.02911
 137       16F+1        0.00000   0.00000   0.00160   0.00000   0.00000
 138       16F-1       -0.05068   0.18081   0.00000   0.18215   0.07193
 139       16F+2        0.09690  -0.13524   0.00000  -0.10944  -0.03904
 140       16F-2        0.00000   0.00000   0.03837   0.00000   0.00000
 141       16F+3        0.00000   0.00000  -0.10105   0.00000   0.00000
 142       16F-3       -0.02801  -0.03940   0.00000  -0.02434  -0.00604
 143 4   Cl 1S         -0.02837  -0.01486   0.00000   0.01322  -0.00765
 144        2S         -0.45482  -0.22383   0.00000   0.17670  -0.13876
 145        3S         -1.14289  -0.58465   0.00000   0.50690  -0.31543
 146        4S          0.22619   0.09634   0.00000  -0.00238   0.13644
 147        5S          6.65418   1.72181   0.00000  -3.77536   0.58264
 148        6S          2.73936   1.63360   0.00000 -12.65225  -2.60121
 149        7PX         0.00000   0.00000  -0.01667   0.00000   0.00000
 150        7PY         0.00664  -0.00292   0.00000  -0.01286  -0.00230
 151        7PZ         0.01072  -0.00839   0.00000  -0.00084  -0.00503
 152        8PX         0.00000   0.00000  -0.21173   0.00000   0.00000
 153        8PY        -0.00448  -0.04296   0.00000  -0.22194   0.04477
 154        8PZ         0.27436  -0.10263   0.00000   0.00565  -0.10979
 155        9PX         0.00000   0.00000   0.06473   0.00000   0.00000
 156        9PY        -0.01876   0.02698   0.00000   0.04800   0.01117
 157        9PZ        -0.04382   0.01704   0.00000   0.00650   0.01846
 158       10PX         0.00000   0.00000   0.91540   0.00000   0.00000
 159       10PY        -3.24861  -0.46151   0.00000   4.77236   0.09147
 160       10PZ         1.06194   1.91914   0.00000  -3.43850  -0.29299
 161       11PX         0.00000   0.00000  -2.23747   0.00000   0.00000
 162       11PY        -0.46120   0.63524   0.00000   2.61697  -2.76635
 163       11PZ        -0.29896  -2.01313   0.00000  -1.50579  -0.89344
 164       12D 0       -0.00659  -0.04255   0.00000   0.02139  -0.00427
 165       12D+1        0.00000   0.00000  -0.02668   0.00000   0.00000
 166       12D-1        0.05070   0.08322   0.00000   0.01968  -0.01276
 167       12D+2        0.01150   0.06956   0.00000   0.04016  -0.05512
 168       12D-2        0.00000   0.00000   0.00988   0.00000   0.00000
 169       13D 0        0.11388   0.17140   0.00000  -0.12306  -0.00487
 170       13D+1        0.00000   0.00000   0.08392   0.00000   0.00000
 171       13D-1       -0.37910  -0.36439   0.00000   0.03873   0.13912
 172       13D+2       -0.12909  -0.28162   0.00000  -0.10101   0.25637
 173       13D-2        0.00000   0.00000  -0.03651   0.00000   0.00000
 174       14D 0       -0.57114   0.25204   0.00000  -0.03157  -0.27325
 175       14D+1        0.00000   0.00000  -0.07600   0.00000   0.00000
 176       14D-1       -0.16465  -0.13500   0.00000   1.57331   0.03421
 177       14D+2       -0.24140   0.35481   0.00000   1.12918  -0.58394
 178       14D-2        0.00000   0.00000  -0.18353   0.00000   0.00000
 179       15F 0        0.03364  -0.00109   0.00000  -0.00698  -0.01392
 180       15F+1        0.00000   0.00000  -0.00593   0.00000   0.00000
 181       15F-1       -0.00612   0.04295   0.00000  -0.04610  -0.00934
 182       15F+2        0.00081   0.03057   0.00000  -0.01194  -0.00475
 183       15F-2        0.00000   0.00000   0.01712   0.00000   0.00000
 184       15F+3        0.00000   0.00000   0.04211   0.00000   0.00000
 185       15F-3        0.03047   0.00065   0.00000  -0.00916   0.01010
 186       16F 0       -0.13653   0.00454   0.00000   0.03609   0.02911
 187       16F+1        0.00000   0.00000   0.00160   0.00000   0.00000
 188       16F-1       -0.05068  -0.18081   0.00000   0.18215   0.07193
 189       16F+2       -0.09690  -0.13524   0.00000   0.10944   0.03904
 190       16F-2        0.00000   0.00000  -0.03837   0.00000   0.00000
 191       16F+3        0.00000   0.00000  -0.10105   0.00000   0.00000
 192       16F-3       -0.02801   0.03940   0.00000  -0.02434  -0.00604
                         191       192
     Eigenvalues --     0.00000   0.00000
   1 1   O  1S          0.06831   0.07155
   2        2S          0.36653   0.36705
   3        3S          0.01265  -0.01393
   4        4S         -4.65297  -3.06197
   5        5S         -9.37996  -8.62911
   6        6PX         0.00000   0.00000
   7        6PY         0.00000   0.00000
   8        6PZ        -0.01089   0.00318
   9        7PX         0.00000   0.00000
  10        7PY         0.00000   0.00000
  11        7PZ         0.16605  -0.00263
  12        8PX         0.00000   0.00000
  13        8PY         0.00000   0.00000
  14        8PZ         2.71038   2.17840
  15        9PX         0.00000   0.00000
  16        9PY         0.00000   0.00000
  17        9PZ        -1.41261  -0.10020
  18       10D 0        0.03707   0.04145
  19       10D+1        0.00000   0.00000
  20       10D-1        0.00000   0.00000
  21       10D+2       -0.02759  -0.01377
  22       10D-2        0.00000   0.00000
  23       11D 0       -0.31674  -0.22341
  24       11D+1        0.00000   0.00000
  25       11D-1        0.00000   0.00000
  26       11D+2        0.07886   0.04250
  27       11D-2        0.00000   0.00000
  28       12D 0       -0.39186  -0.30609
  29       12D+1        0.00000   0.00000
  30       12D-1        0.00000   0.00000
  31       12D+2       -0.44479  -0.13256
  32       12D-2        0.00000   0.00000
  33       13F 0        0.01099  -0.00887
  34       13F+1        0.00000   0.00000
  35       13F-1        0.00000   0.00000
  36       13F+2       -0.01467  -0.00634
  37       13F-2        0.00000   0.00000
  38       13F+3        0.00000   0.00000
  39       13F-3        0.00000   0.00000
  40       14F 0        0.12325   0.11652
  41       14F+1        0.00000   0.00000
  42       14F-1        0.00000   0.00000
  43       14F+2        0.06768   0.02695
  44       14F-2        0.00000   0.00000
  45       14F+3        0.00000   0.00000
  46       14F-3        0.00000   0.00000
  47 2   C  1S          0.21003   0.03292
  48        2S          1.16468   0.26924
  49        3S         -0.04069   0.10825
  50        4S          6.36423  12.32796
  51        5S         -2.53810  19.26774
  52        6PX         0.00000   0.00000
  53        6PY         0.00000   0.00000
  54        6PZ         0.02130   0.01131
  55        7PX         0.00000   0.00000
  56        7PY         0.00000   0.00000
  57        7PZ         1.05585   0.61097
  58        8PX         0.00000   0.00000
  59        8PY         0.00000   0.00000
  60        8PZ         2.94834  -0.70056
  61        9PX         0.00000   0.00000
  62        9PY         0.00000   0.00000
  63        9PZ         7.23556  -0.46040
  64       10D 0        0.06413   0.04681
  65       10D+1        0.00000   0.00000
  66       10D-1        0.00000   0.00000
  67       10D+2        0.01187  -0.02122
  68       10D-2        0.00000   0.00000
  69       11D 0        0.50435   0.21057
  70       11D+1        0.00000   0.00000
  71       11D-1        0.00000   0.00000
  72       11D+2       -0.04873  -0.02880
  73       11D-2        0.00000   0.00000
  74       12D 0        3.16897   1.65286
  75       12D+1        0.00000   0.00000
  76       12D-1        0.00000   0.00000
  77       12D+2        1.50965  -0.74802
  78       12D-2        0.00000   0.00000
  79       13F 0        0.06197  -0.01245
  80       13F+1        0.00000   0.00000
  81       13F-1        0.00000   0.00000
  82       13F+2       -0.01169   0.00068
  83       13F-2        0.00000   0.00000
  84       13F+3        0.00000   0.00000
  85       13F-3        0.00000   0.00000
  86       14F 0       -0.05254  -0.04193
  87       14F+1        0.00000   0.00000
  88       14F-1        0.00000   0.00000
  89       14F+2        0.23104   0.02342
  90       14F-2        0.00000   0.00000
  91       14F+3        0.00000   0.00000
  92       14F-3        0.00000   0.00000
  93 3   Cl 1S          0.00768   0.00049
  94        2S          0.13235  -0.01340
  95        3S          0.31250   0.00669
  96        4S         -0.10196   0.06628
  97        5S         -0.81654  -0.55424
  98        6S          4.84314 -10.12265
  99        7PX         0.00000   0.00000
 100        7PY        -0.00490   0.01039
 101        7PZ        -0.01670   0.00570
 102        8PX         0.00000   0.00000
 103        8PY        -0.07995   0.17970
 104        8PZ        -0.26248   0.10231
 105        9PX         0.00000   0.00000
 106        9PY         0.01760  -0.03688
 107        9PZ         0.06226  -0.02057
 108       10PX         0.00000   0.00000
 109       10PY        -0.72568  -2.87144
 110       10PZ         1.51591  -1.35347
 111       11PX         0.00000   0.00000
 112       11PY         0.90613  -1.61135
 113       11PZ        -1.02972  -1.36630
 114       12D 0       -0.01790   0.00121
 115       12D+1        0.00000   0.00000
 116       12D-1        0.00817  -0.00167
 117       12D+2        0.00342  -0.02310
 118       12D-2        0.00000   0.00000
 119       13D 0        0.07262   0.01157
 120       13D+1        0.00000   0.00000
 121       13D-1       -0.04745  -0.00643
 122       13D+2        0.01790   0.10142
 123       13D-2        0.00000   0.00000
 124       14D 0        0.27204   0.12192
 125       14D+1        0.00000   0.00000
 126       14D-1        0.15720  -0.76986
 127       14D+2        0.44256   0.63633
 128       14D-2        0.00000   0.00000
 129       15F 0        0.00216  -0.01652
 130       15F+1        0.00000   0.00000
 131       15F-1        0.01489   0.00876
 132       15F+2        0.00081  -0.04154
 133       15F-2        0.00000   0.00000
 134       15F+3        0.00000   0.00000
 135       15F-3       -0.00167  -0.03454
 136       16F 0       -0.00303   0.05508
 137       16F+1        0.00000   0.00000
 138       16F-1       -0.01321  -0.02339
 139       16F+2        0.01720   0.13989
 140       16F-2        0.00000   0.00000
 141       16F+3        0.00000   0.00000
 142       16F-3        0.04490   0.11643
 143 4   Cl 1S          0.00768   0.00049
 144        2S          0.13235  -0.01340
 145        3S          0.31250   0.00669
 146        4S         -0.10196   0.06628
 147        5S         -0.81654  -0.55424
 148        6S          4.84314 -10.12265
 149        7PX         0.00000   0.00000
 150        7PY         0.00490  -0.01039
 151        7PZ        -0.01670   0.00570
 152        8PX         0.00000   0.00000
 153        8PY         0.07995  -0.17970
 154        8PZ        -0.26248   0.10231
 155        9PX         0.00000   0.00000
 156        9PY        -0.01760   0.03688
 157        9PZ         0.06226  -0.02057
 158       10PX         0.00000   0.00000
 159       10PY         0.72568   2.87144
 160       10PZ         1.51591  -1.35347
 161       11PX         0.00000   0.00000
 162       11PY        -0.90613   1.61135
 163       11PZ        -1.02972  -1.36630
 164       12D 0       -0.01790   0.00121
 165       12D+1        0.00000   0.00000
 166       12D-1       -0.00817   0.00167
 167       12D+2        0.00342  -0.02310
 168       12D-2        0.00000   0.00000
 169       13D 0        0.07262   0.01157
 170       13D+1        0.00000   0.00000
 171       13D-1        0.04745   0.00643
 172       13D+2        0.01790   0.10142
 173       13D-2        0.00000   0.00000
 174       14D 0        0.27204   0.12192
 175       14D+1        0.00000   0.00000
 176       14D-1       -0.15720   0.76986
 177       14D+2        0.44256   0.63633
 178       14D-2        0.00000   0.00000
 179       15F 0        0.00216  -0.01652
 180       15F+1        0.00000   0.00000
 181       15F-1       -0.01489  -0.00876
 182       15F+2        0.00081  -0.04154
 183       15F-2        0.00000   0.00000
 184       15F+3        0.00000   0.00000
 185       15F-3        0.00167   0.03454
 186       16F 0       -0.00303   0.05508
 187       16F+1        0.00000   0.00000
 188       16F-1        0.01321   0.02339
 189       16F+2        0.01720   0.13989
 190       16F-2        0.00000   0.00000
 191       16F+3        0.00000   0.00000
 192       16F-3       -0.04490  -0.11643
          Condensed to atoms (all electrons):
              1          2          3          4
     1  O    8.020106   0.441706  -0.074140  -0.074140
     2  C    0.441706   4.948764   0.140153   0.140153
     3  Cl  -0.074140   0.140153  17.044340  -0.102508
     4  Cl  -0.074140   0.140153  -0.102508  17.044340
 Mulliken atomic charges:
              1
     1  O   -0.313532
     2  C    0.329223
     3  Cl  -0.007846
     4  Cl  -0.007846
 Sum of Mulliken atomic charges =   0.00000
 Mulliken charges with hydrogens summed into heavy atoms:
              1
     1  O   -0.313532
     2  C    0.329223
     3  Cl  -0.007846
     4  Cl  -0.007846
 Sum of Mulliken charges with hydrogens summed into heavy atoms =   0.00000
 Electronic spatial extent (au):  <R**2>=            613.5946
 Charge=              0.0000 electrons
 Dipole moment (field-independent basis, Debye):
    X=              0.0000    Y=              0.0000    Z=             -1.1566  Tot=              1.1566
 Quadrupole moment (field-independent basis, Debye-Ang):
   XX=            -35.0858   YY=            -34.4963   ZZ=            -36.3303
   XY=              0.0000   XZ=              0.0000   YZ=              0.0000
 Traceless Quadrupole moment (field-independent basis, Debye-Ang):
   XX=              0.2183   YY=              0.8078   ZZ=             -1.0262
   XY=              0.0000   XZ=              0.0000   YZ=              0.0000
 Octapole moment (field-independent basis, Debye-Ang**2):
  XXX=              0.0000  YYY=              0.0000  ZZZ=            106.1773  XYY=              0.0000
  XXY=              0.0000  XXZ=             36.0881  XZZ=              0.0000  YZZ=              0.0000
  YYZ=             29.8426  XYZ=              0.0000
 Hexadecapole moment (field-independent basis, Debye-Ang**3):
 XXXX=            -37.1591 YYYY=           -330.2727 ZZZZ=           -382.8443 XXXY=              0.0000
 XXXZ=              0.0000 YYYX=              0.0000 YYYZ=              0.0000 ZZZX=              0.0000
 ZZZY=              0.0000 XXYY=            -65.3561 XXZZ=            -71.0930 YYZZ=           -107.0205
 XXYZ=              0.0000 YYXZ=              0.0000 ZZXY=              0.0000
 N-N= 1.917522349889D+02 E-N=-2.837760982293D+03  KE= 1.032450271897D+03
 1\1\GINC-TRAPISTA\SP\RQCISD-FC\Aug-CC-pVTZ\C1Cl2O1\BRUNS\27-Nov-2021\0
 \\# qcisd/aug-cc-pvtz nosymm density=current output=wfn\\cl2co-wavefun
 ction\\0,1\O,0,0.,0.,0.683397\C,0,0.,0.,-0.484687\Cl,0,0.,-1.44687,-1.
 469805\Cl,0,0.,1.44687,-1.469805\\Version=EM64L-G09RevB.01\HF=-1031.80
 33671\MP2=-1032.5817648\MP3=-1032.6012721\MP4D=-1032.6207584\MP4DQ=-10
 32.5982958\MP4SDQ=-1032.6071314\QCISD=-1032.6054359\RMSD=4.248e-09\Dip
 ole=0.,0.,-0.4550609\Quadrupole=0.1623225,0.6005956,-0.7629182,0.,0.,0
 .\PG=C02V [C2(C1O1),SGV(Cl2)]\\@

 Writing a WFN file to GAUSSIAN.wfn.


 AN OPTIMIST IS A GUY
 THAT HAS NEVER HAD
 MUCH EXPERIENCE
   (CERTAIN MAXIMS OF ARCHY  -- DON MARQUIS)
 Job cpu time:  0 days  2 hours  1 minutes 39.9 seconds.
 File lengths (MBytes):  RWF=  18183 Int=      0 D2E=      0 Chk=      3 Scr=      1
 Normal termination of Gaussian 09 at Sat Nov 27 14:11:22 2021.
