 cl2co-wavefunction
GAUSSIAN            192 MOL ORBITALS    372 PRIMITIVES        4 NUCLEI
  O    1    (CENTRE  1)   0.00000000  0.00000000  1.29143317  CHARGE =  8.0
  C    2    (CENTRE  2)   0.01889726  0.00000000 -0.93482295  CHARGE =  6.0
  Cl   3    (CENTRE  3)   0.00000000 -2.73418805 -2.77752892  CHARGE = 17.0
  Cl   4    (CENTRE  4)   0.00000000  2.73418805 -2.77752892  CHARGE = 17.0
CENTRE ASSIGNMENTS    1  1  1  1  1  1  1  1  1  1  1  1  1  1  1  1  1  1  1  1
CENTRE ASSIGNMENTS    1  1  1  1  1  1  1  1  1  1  1  1  1  1  1  1  1  1  1  1
CENTRE ASSIGNMENTS    1  1  1  1  1  1  1  1  1  1  1  1  1  1  1  1  1  1  1  1
CENTRE ASSIGNMENTS    1  1  1  1  1  1  1  1  1  1  1  1  2  2  2  2  2  2  2  2
CENTRE ASSIGNMENTS    2  2  2  2  2  2  2  2  2  2  2  2  2  2  2  2  2  2  2  2
CENTRE ASSIGNMENTS    2  2  2  2  2  2  2  2  2  2  2  2  2  2  2  2  2  2  2  2
CENTRE ASSIGNMENTS    2  2  2  2  2  2  2  2  2  2  2  2  2  2  2  2  2  2  2  2
CENTRE ASSIGNMENTS    2  2  2  2  3  3  3  3  3  3  3  3  3  3  3  3  3  3  3  3
CENTRE ASSIGNMENTS    3  3  3  3  3  3  3  3  3  3  3  3  3  3  3  3  3  3  3  3
CENTRE ASSIGNMENTS    3  3  3  3  3  3  3  3  3  3  3  3  3  3  3  3  3  3  3  3
CENTRE ASSIGNMENTS    3  3  3  3  3  3  3  3  3  3  3  3  3  3  3  3  3  3  3  3
CENTRE ASSIGNMENTS    3  3  3  3  3  3  3  3  3  3  3  3  3  3  3  3  3  3  3  3
CENTRE ASSIGNMENTS    3  3  3  3  3  3  3  3  3  3  3  3  3  3  3  3  3  3  4  4
CENTRE ASSIGNMENTS    4  4  4  4  4  4  4  4  4  4  4  4  4  4  4  4  4  4  4  4
CENTRE ASSIGNMENTS    4  4  4  4  4  4  4  4  4  4  4  4  4  4  4  4  4  4  4  4
CENTRE ASSIGNMENTS    4  4  4  4  4  4  4  4  4  4  4  4  4  4  4  4  4  4  4  4
CENTRE ASSIGNMENTS    4  4  4  4  4  4  4  4  4  4  4  4  4  4  4  4  4  4  4  4
CENTRE ASSIGNMENTS    4  4  4  4  4  4  4  4  4  4  4  4  4  4  4  4  4  4  4  4
CENTRE ASSIGNMENTS    4  4  4  4  4  4  4  4  4  4  4  4
TYPE ASSIGNMENTS      1  1  1  1  1  1  1  1  1  1  1  1  1  1  1  1  2  2  2  3
TYPE ASSIGNMENTS      3  3  4  4  4  2  3  4  2  3  4  2  3  4  5  6  7  8  9 10
TYPE ASSIGNMENTS      5  6  7  8  9 10  5  6  7  8  9 10 11 12 13 17 14 15 18 19
TYPE ASSIGNMENTS     16 20 11 12 13 17 14 15 18 19 16 20  1  1  1  1  1  1  1  1
TYPE ASSIGNMENTS      1  1  1  1  1  1  1  1  2  2  2  3  3  3  4  4  4  2  3  4
TYPE ASSIGNMENTS      2  3  4  2  3  4  5  6  7  8  9 10  5  6  7  8  9 10  5  6
TYPE ASSIGNMENTS      7  8  9 10 11 12 13 17 14 15 18 19 16 20 11 12 13 17 14 15
TYPE ASSIGNMENTS     18 19 16 20  1  1  1  1  1  1  1  1  1  1  1  1  1  1  1  1
TYPE ASSIGNMENTS      1  1  1  1  1  1  1  1  1  1  1  1  1  1  1  2  2  2  2  2
TYPE ASSIGNMENTS      2  3  3  3  3  3  3  4  4  4  4  4  4  2  2  2  2  2  2  3
TYPE ASSIGNMENTS      3  3  3  3  3  4  4  4  4  4  4  2  3  4  2  3  4  2  3  4
TYPE ASSIGNMENTS      5  6  7  8  9 10  5  6  7  8  9 10  5  6  7  8  9 10 11 12
TYPE ASSIGNMENTS     13 17 14 15 18 19 16 20 11 12 13 17 14 15 18 19 16 20  1  1
TYPE ASSIGNMENTS      1  1  1  1  1  1  1  1  1  1  1  1  1  1  1  1  1  1  1  1
TYPE ASSIGNMENTS      1  1  1  1  1  1  1  1  1  2  2  2  2  2  2  3  3  3  3  3
TYPE ASSIGNMENTS      3  4  4  4  4  4  4  2  2  2  2  2  2  3  3  3  3  3  3  4
TYPE ASSIGNMENTS      4  4  4  4  4  2  3  4  2  3  4  2  3  4  5  6  7  8  9 10
TYPE ASSIGNMENTS      5  6  7  8  9 10  5  6  7  8  9 10 11 12 13 17 14 15 18 19
TYPE ASSIGNMENTS     16 20 11 12 13 17 14 15 18 19 16 20
EXPONENTS  0.1533000D+05 0.2299000D+04 0.5224000D+03 0.1473000D+03 0.4755000D+02
EXPONENTS  0.1676000D+02 0.6207000D+01 0.5224000D+03 0.1473000D+03 0.4755000D+02
EXPONENTS  0.1676000D+02 0.6207000D+01 0.6882000D+00 0.1752000D+01 0.2384000D+00
EXPONENTS  0.7376000D-01 0.3446000D+02 0.7749000D+01 0.2280000D+01 0.3446000D+02
EXPONENTS  0.7749000D+01 0.2280000D+01 0.3446000D+02 0.7749000D+01 0.2280000D+01
EXPONENTS  0.7156000D+00 0.7156000D+00 0.7156000D+00 0.2140000D+00 0.2140000D+00
EXPONENTS  0.2140000D+00 0.5974000D-01 0.5974000D-01 0.5974000D-01 0.2314000D+01
EXPONENTS  0.2314000D+01 0.2314000D+01 0.2314000D+01 0.2314000D+01 0.2314000D+01
EXPONENTS  0.6450000D+00 0.6450000D+00 0.6450000D+00 0.6450000D+00 0.6450000D+00
EXPONENTS  0.6450000D+00 0.2140000D+00 0.2140000D+00 0.2140000D+00 0.2140000D+00
EXPONENTS  0.2140000D+00 0.2140000D+00 0.1428000D+01 0.1428000D+01 0.1428000D+01
EXPONENTS  0.1428000D+01 0.1428000D+01 0.1428000D+01 0.1428000D+01 0.1428000D+01
EXPONENTS  0.1428000D+01 0.1428000D+01 0.5000000D+00 0.5000000D+00 0.5000000D+00
EXPONENTS  0.5000000D+00 0.5000000D+00 0.5000000D+00 0.5000000D+00 0.5000000D+00
EXPONENTS  0.5000000D+00 0.5000000D+00 0.8236000D+04 0.1235000D+04 0.2808000D+03
EXPONENTS  0.7927000D+02 0.2559000D+02 0.8997000D+01 0.3319000D+01 0.2808000D+03
EXPONENTS  0.7927000D+02 0.2559000D+02 0.8997000D+01 0.3319000D+01 0.3643000D+00
EXPONENTS  0.9059000D+00 0.1285000D+00 0.4402000D-01 0.1871000D+02 0.4133000D+01
EXPONENTS  0.1200000D+01 0.1871000D+02 0.4133000D+01 0.1200000D+01 0.1871000D+02
EXPONENTS  0.4133000D+01 0.1200000D+01 0.3827000D+00 0.3827000D+00 0.3827000D+00
EXPONENTS  0.1209000D+00 0.1209000D+00 0.1209000D+00 0.3569000D-01 0.3569000D-01
EXPONENTS  0.3569000D-01 0.1097000D+01 0.1097000D+01 0.1097000D+01 0.1097000D+01
EXPONENTS  0.1097000D+01 0.1097000D+01 0.3180000D+00 0.3180000D+00 0.3180000D+00
EXPONENTS  0.3180000D+00 0.3180000D+00 0.3180000D+00 0.1000000D+00 0.1000000D+00
EXPONENTS  0.1000000D+00 0.1000000D+00 0.1000000D+00 0.1000000D+00 0.7610000D+00
EXPONENTS  0.7610000D+00 0.7610000D+00 0.7610000D+00 0.7610000D+00 0.7610000D+00
EXPONENTS  0.7610000D+00 0.7610000D+00 0.7610000D+00 0.7610000D+00 0.2680000D+00
EXPONENTS  0.2680000D+00 0.2680000D+00 0.2680000D+00 0.2680000D+00 0.2680000D+00
EXPONENTS  0.2680000D+00 0.2680000D+00 0.2680000D+00 0.2680000D+00 0.4561000D+06
EXPONENTS  0.6833000D+05 0.1555000D+05 0.4405000D+04 0.1439000D+04 0.5204000D+03
EXPONENTS  0.2031000D+03 0.8396000D+02 0.3620000D+02 0.1583000D+02 0.6334000D+01
EXPONENTS  0.4405000D+04 0.1439000D+04 0.5204000D+03 0.2031000D+03 0.8396000D+02
EXPONENTS  0.3620000D+02 0.1583000D+02 0.6334000D+01 0.2694000D+01 0.1439000D+04
EXPONENTS  0.2031000D+03 0.8396000D+02 0.3620000D+02 0.1583000D+02 0.6334000D+01
EXPONENTS  0.2694000D+01 0.4313000D+00 0.9768000D+00 0.1625000D+00 0.5910000D-01
EXPONENTS  0.6633000D+03 0.1568000D+03 0.4998000D+02 0.1842000D+02 0.7240000D+01
EXPONENTS  0.2922000D+01 0.6633000D+03 0.1568000D+03 0.4998000D+02 0.1842000D+02
EXPONENTS  0.7240000D+01 0.2922000D+01 0.6633000D+03 0.1568000D+03 0.4998000D+02
EXPONENTS  0.1842000D+02 0.7240000D+01 0.2922000D+01 0.1568000D+03 0.4998000D+02
EXPONENTS  0.1842000D+02 0.7240000D+01 0.2922000D+01 0.3818000D+00 0.1568000D+03
EXPONENTS  0.4998000D+02 0.1842000D+02 0.7240000D+01 0.2922000D+01 0.3818000D+00
EXPONENTS  0.1568000D+03 0.4998000D+02 0.1842000D+02 0.7240000D+01 0.2922000D+01
EXPONENTS  0.3818000D+00 0.1022000D+01 0.1022000D+01 0.1022000D+01 0.1301000D+00
EXPONENTS  0.1301000D+00 0.1301000D+00 0.4190000D-01 0.4190000D-01 0.4190000D-01
EXPONENTS  0.1046000D+01 0.1046000D+01 0.1046000D+01 0.1046000D+01 0.1046000D+01
EXPONENTS  0.1046000D+01 0.3440000D+00 0.3440000D+00 0.3440000D+00 0.3440000D+00
EXPONENTS  0.3440000D+00 0.3440000D+00 0.1350000D+00 0.1350000D+00 0.1350000D+00
EXPONENTS  0.1350000D+00 0.1350000D+00 0.1350000D+00 0.7060000D+00 0.7060000D+00
EXPONENTS  0.7060000D+00 0.7060000D+00 0.7060000D+00 0.7060000D+00 0.7060000D+00
EXPONENTS  0.7060000D+00 0.7060000D+00 0.7060000D+00 0.3120000D+00 0.3120000D+00
EXPONENTS  0.3120000D+00 0.3120000D+00 0.3120000D+00 0.3120000D+00 0.3120000D+00
EXPONENTS  0.3120000D+00 0.3120000D+00 0.3120000D+00 0.4561000D+06 0.6833000D+05
EXPONENTS  0.1555000D+05 0.4405000D+04 0.1439000D+04 0.5204000D+03 0.2031000D+03
EXPONENTS  0.8396000D+02 0.3620000D+02 0.1583000D+02 0.6334000D+01 0.4405000D+04
EXPONENTS  0.1439000D+04 0.5204000D+03 0.2031000D+03 0.8396000D+02 0.3620000D+02
EXPONENTS  0.1583000D+02 0.6334000D+01 0.2694000D+01 0.1439000D+04 0.2031000D+03
EXPONENTS  0.8396000D+02 0.3620000D+02 0.1583000D+02 0.6334000D+01 0.2694000D+01
EXPONENTS  0.4313000D+00 0.9768000D+00 0.1625000D+00 0.5910000D-01 0.6633000D+03
EXPONENTS  0.1568000D+03 0.4998000D+02 0.1842000D+02 0.7240000D+01 0.2922000D+01
EXPONENTS  0.6633000D+03 0.1568000D+03 0.4998000D+02 0.1842000D+02 0.7240000D+01
EXPONENTS  0.2922000D+01 0.6633000D+03 0.1568000D+03 0.4998000D+02 0.1842000D+02
EXPONENTS  0.7240000D+01 0.2922000D+01 0.1568000D+03 0.4998000D+02 0.1842000D+02
EXPONENTS  0.7240000D+01 0.2922000D+01 0.3818000D+00 0.1568000D+03 0.4998000D+02
EXPONENTS  0.1842000D+02 0.7240000D+01 0.2922000D+01 0.3818000D+00 0.1568000D+03
EXPONENTS  0.4998000D+02 0.1842000D+02 0.7240000D+01 0.2922000D+01 0.3818000D+00
EXPONENTS  0.1022000D+01 0.1022000D+01 0.1022000D+01 0.1301000D+00 0.1301000D+00
EXPONENTS  0.1301000D+00 0.4190000D-01 0.4190000D-01 0.4190000D-01 0.1046000D+01
EXPONENTS  0.1046000D+01 0.1046000D+01 0.1046000D+01 0.1046000D+01 0.1046000D+01
EXPONENTS  0.3440000D+00 0.3440000D+00 0.3440000D+00 0.3440000D+00 0.3440000D+00
EXPONENTS  0.3440000D+00 0.1350000D+00 0.1350000D+00 0.1350000D+00 0.1350000D+00
EXPONENTS  0.1350000D+00 0.1350000D+00 0.7060000D+00 0.7060000D+00 0.7060000D+00
EXPONENTS  0.7060000D+00 0.7060000D+00 0.7060000D+00 0.7060000D+00 0.7060000D+00
EXPONENTS  0.7060000D+00 0.7060000D+00 0.3120000D+00 0.3120000D+00 0.3120000D+00
EXPONENTS  0.3120000D+00 0.3120000D+00 0.3120000D+00 0.3120000D+00 0.3120000D+00
EXPONENTS  0.3120000D+00 0.3120000D+00
MO    1     MO 0.0        OCC NO =    2.0000387  ORB. ENERGY =    0.000000
 -0.11002721D-10 -0.20507263D-10 -0.34772945D-10 -0.52625155D-10 -0.65645733D-10
 -0.56333806D-10 -0.21572855D-10 -0.27336984D-14 -0.29330790D-13 -0.10811881D-12
 -0.31613307D-12 -0.38095572D-12  0.45890154D-12 -0.12092034D-11 -0.11646399D-11
 -0.17268584D-11 -0.32116189D-12 -0.31141900D-12 -0.21008142D-12 -0.87676253D-03
 -0.85016473D-03 -0.57351610D-03 -0.94322910D-11 -0.91461494D-11 -0.61699384D-11
 -0.11405416D-12 -0.94141646D-03 -0.32040991D-11 -0.80067909D-13 -0.75965079D-03
 -0.28215612D-11 -0.48241017D-14 -0.19851798D-04 -0.59058773D-13 -0.79125492D-12
  0.12279250D-11 -0.43667003D-12  0.28109924D-04 -0.84915714D-13 -0.20024505D-03
  0.46114572D-12 -0.13795682D-11  0.91842249D-12 -0.15399272D-04  0.32418098D-13
 -0.70857799D-04 -0.32899186D-12 -0.12449393D-12  0.45348579D-12 -0.57828003D-05
  0.33110182D-14  0.11207756D-03  0.10354347D-13 -0.14733176D-03 -0.19695382D-12
 -0.58872797D-13  0.22255404D-03  0.22457307D-12  0.27809757D-13  0.21944123D-03
  0.36628840D-12 -0.29785326D-04 -0.67424288D-14 -0.10228960D-04 -0.18933996D-12
  0.17771127D-13 -0.20051736D-03 -0.19315942D-12  0.24561596D-14  0.23120424D-03
  0.76117931D-12  0.11019100D-04  0.34699823D-10  0.64687460D-10  0.10933062D-09
  0.16434431D-09  0.20186755D-09  0.17036909D-09  0.64063228D-10  0.24476758D-13
  0.18294860D-12  0.68372070D-12  0.19074743D-11  0.25554897D-11 -0.30175568D-11
  0.16928006D-11 -0.19523700D-12 -0.52843087D-12  0.33319015D-12  0.31238695D-12
  0.22243812D-12  0.11087348D-02  0.10395094D-02  0.74019261D-03 -0.58008839D-11
 -0.54386973D-11 -0.38726765D-11  0.10361767D-12  0.14406505D-03 -0.45746099D-11
  0.18724742D-13  0.71627647D-04  0.12118570D-11 -0.42359466D-15 -0.87391456D-05
  0.12813545D-12  0.30530940D-12 -0.39061889D-11  0.36008795D-11  0.11649192D-06
 -0.10548161D-12  0.18434771D-03 -0.42847280D-12  0.89507516D-12 -0.46660236D-12
  0.40879794D-05  0.52829334D-13  0.74346863D-04  0.43389385D-14 -0.66367571D-12
  0.65933677D-12 -0.74290876D-06  0.77149619D-15  0.54664822D-04 -0.24145511D-14
  0.25490885D-03 -0.76253944D-12  0.43644982D-14  0.37098714D-04  0.97035126D-12
  0.28791552D-14 -0.80182526D-03  0.13172671D-11  0.10774718D-04  0.16924905D-14
 -0.25880948D-03  0.38471759D-12 -0.29584605D-13  0.27159617D-04 -0.54426166D-12
  0.24507133D-13  0.74926883D-03 -0.60989111D-12  0.36393156D-05 -0.27070541D-03
 -0.50646094D-03 -0.87505217D-03 -0.14185624D-02 -0.21542231D-02 -0.29941674D-02
 -0.35598356D-02 -0.31712253D-02 -0.15748975D-02 -0.25354518D-03 -0.26750514D-05
 -0.15756064D-05 -0.52559591D-04 -0.18315965D-03 -0.65958757D-03 -0.14539787D-02
 -0.20467328D-02  0.97635823D-04  0.26785052D-02  0.15837834D-02  0.27586381D-06
  0.33413844D-05  0.69681049D-05  0.19983312D-04  0.10377055D-05 -0.86177731D-04
 -0.22266671D-03  0.18141835D-03  0.81567614D-04 -0.10093961D-03 -0.57223668D-04
 -0.24295249D-01 -0.32002527D-01 -0.35303797D-01 -0.29322567D-01 -0.15571097D-01
 -0.40174244D-02 -0.46637026D+01 -0.61431873D+01 -0.67768972D+01 -0.56287438D+01
 -0.29890191D+01 -0.77118256D+00  0.67690413D+01  0.89164109D+01  0.98361970D+01
  0.81697318D+01  0.43383543D+01  0.11193181D+01  0.11264690D-05 -0.10889978D-04
 -0.15356005D-04 -0.21963150D-04  0.11121830D-06  0.20142280D-04  0.23742111D-03
 -0.22952346D-02 -0.32365203D-02 -0.46290802D-02  0.23441011D-04  0.42453032D-02
 -0.33426149D-03  0.32314251D-02  0.45566466D-02  0.65172101D-02 -0.33002235D-04
 -0.59768963D-02 -0.15497651D-03 -0.29932132D-01  0.43665531D-01  0.26736459D-06
  0.34401317D-03 -0.55702645D-03 -0.16416935D-07  0.10938719D-04 -0.17210000D-04
 -0.14412662D-04 -0.74744452D-03  0.76185718D-03 -0.89456515D-05  0.10679368D-04
  0.68708823D-03  0.58497812D-04  0.43196998D-03 -0.49046779D-03  0.50798714D-05
 -0.69842609D-05 -0.35214687D-03  0.47678043D-05 -0.18286832D-05 -0.29391211D-05
 -0.62281702D-07 -0.67949289D-06 -0.48912169D-05  0.70293452D-07 -0.13872375D-04
 -0.26403506D-05 -0.24629068D-05  0.18485545D-04  0.37033114D-04  0.22520264D-05
  0.23131579D-04 -0.29112062D-04 -0.14840480D-06  0.18734707D-06  0.75039499D-04
 -0.42061617D-04  0.31955776D-05  0.11413435D-04  0.51323413D-04 -0.37576188D-05
 -0.23653193D-03  0.74861437D-04 -0.24161105D-05  0.27070552D-03  0.50646115D-03
  0.87505252D-03  0.14185630D-02  0.21542240D-02  0.29941686D-02  0.35598371D-02
  0.31712266D-02  0.15748982D-02  0.25354528D-03  0.26750525D-05  0.15756065D-05
  0.52559597D-04  0.18315967D-03  0.65958763D-03  0.14539789D-02  0.20467330D-02
 -0.97635833D-04 -0.26785055D-02 -0.15837835D-02 -0.27586381D-06 -0.33413844D-05
 -0.69681048D-05 -0.19983312D-04 -0.10377055D-05  0.86177731D-04  0.22266671D-03
 -0.18141835D-03 -0.81567622D-04  0.10093961D-03  0.57223670D-04  0.24295248D-01
  0.32002525D-01  0.35303794D-01  0.29322565D-01  0.15571096D-01  0.40174241D-02
 -0.46637026D+01 -0.61431873D+01 -0.67768972D+01 -0.56287437D+01 -0.29890191D+01
 -0.77118255D+00 -0.67690413D+01 -0.89164108D+01 -0.98361969D+01 -0.81697317D+01
 -0.43383542D+01 -0.11193181D+01 -0.11264689D-05  0.10889977D-04  0.15356004D-04
  0.21963148D-04 -0.11121829D-06 -0.20142278D-04  0.23742111D-03 -0.22952345D-02
 -0.32365203D-02 -0.46290802D-02  0.23441010D-04  0.42453031D-02  0.33426149D-03
 -0.32314250D-02 -0.45566466D-02 -0.65172100D-02  0.33002234D-04  0.59768963D-02
  0.15497650D-03 -0.29932132D-01 -0.43665530D-01 -0.26736448D-06  0.34401316D-03
  0.55702645D-03  0.16416940D-07  0.10938719D-04  0.17210000D-04  0.14412661D-04
  0.74744451D-03 -0.76185717D-03 -0.89456513D-05 -0.10679368D-04  0.68708823D-03
 -0.58497812D-04 -0.43196998D-03  0.49046779D-03  0.50798713D-05  0.69842609D-05
 -0.35214687D-03 -0.47678043D-05  0.18286828D-05  0.29391215D-05 -0.62281698D-07
  0.67949291D-06 -0.48912171D-05 -0.70293447D-07 -0.13872375D-04  0.26403505D-05
  0.24629068D-05  0.18485545D-04 -0.37033114D-04 -0.22520264D-05  0.23131580D-04
  0.29112063D-04 -0.14840478D-06 -0.18734708D-06  0.75039498D-04  0.42061617D-04
 -0.31955776D-05  0.11413435D-04 -0.51323412D-04  0.37576188D-05 -0.23653193D-03
 -0.74861438D-04 -0.24161106D-05
MO    2     MO 0.0        OCC NO =    2.0000377  ORB. ENERGY =    0.000000
  0.55198269D-02  0.10288050D-01  0.17444834D-01  0.26400901D-01  0.32933043D-01
  0.28261451D-01  0.10822634D-01  0.87606696D-06  0.93996235D-05  0.34648782D-04
  0.10131101D-03  0.12208469D-03 -0.14706395D-03  0.54192188D-03  0.20318898D-03
  0.29984340D-03 -0.13083654D-04 -0.12686743D-04 -0.85584022D-05 -0.54676083D-11
 -0.53017409D-11 -0.35765231D-11  0.15917553D-02  0.15434672D-02  0.10412138D-02
  0.80737699D-06 -0.55207092D-11  0.58597813D-03  0.87280982D-05 -0.44167010D-11
  0.49672841D-03  0.87659464D-06 -0.12681879D-12  0.10487315D-04  0.13180023D-03
 -0.21754011D-03  0.85739886D-04  0.18841328D-12  0.11609313D-04 -0.11922447D-11
 -0.76420903D-04  0.24747439D-03 -0.17105348D-03 -0.88201829D-13 -0.30696410D-05
 -0.41212286D-12  0.58114578D-04  0.22151686D-04 -0.80266265D-04 -0.49418348D-13
  0.34936475D-06  0.65210353D-12 -0.12704816D-05 -0.85772204D-12  0.32756121D-04
  0.59394041D-05  0.12567089D-11 -0.37207578D-04 -0.21279593D-05  0.13164572D-11
 -0.61060784D-04 -0.27319784D-12  0.10338541D-05 -0.56786570D-13  0.34749967D-04
 -0.11312047D-05 -0.11510108D-11  0.32346184D-04 -0.19703576D-05  0.13213705D-11
 -0.13659609D-03  0.91555943D-13 -0.38866256D-02 -0.72454530D-02 -0.12245803D-01
 -0.18407726D-01 -0.22610594D-01 -0.19082544D-01 -0.71755347D-02 -0.41651139D-05
 -0.31131646D-04 -0.11634607D-03 -0.32458741D-03 -0.43485765D-03  0.51348580D-03
 -0.10468463D-03 -0.12116180D-04  0.85705140D-04 -0.65473453D-05 -0.61385524D-05
 -0.43710150D-05  0.70260637D-11  0.65873814D-11  0.46906080D-11  0.97955285D-03
  0.91839306D-03  0.65395057D-03 -0.55992176D-05  0.78650878D-12  0.82765082D-03
 -0.11502365D-05  0.31590442D-12 -0.20439924D-03 -0.84216808D-07 -0.43710823D-13
 -0.21904500D-04 -0.68360019D-04  0.68324104D-03 -0.61488102D-03  0.11212199D-12
  0.46503723D-05  0.10577736D-11  0.82248446D-04 -0.16602982D-03  0.83781370D-04
  0.18430974D-13 -0.76145137D-05  0.57988210D-12 -0.13298952D-06  0.11544245D-03
 -0.11530946D-03  0.20640779D-14 -0.57038855D-06  0.34282842D-12 -0.63088435D-06
  0.14666584D-11  0.13660474D-03  0.67318579D-06  0.20039263D-12 -0.17582270D-03
  0.12194673D-05 -0.46003678D-11 -0.23399153D-03  0.30909560D-13  0.55851728D-07
 -0.14914909D-11 -0.68548478D-04  0.37912575D-05  0.17305439D-12  0.94824365D-04
 -0.39588127D-05  0.43014184D-11  0.11082107D-03  0.57352176D-13 -0.14773102D-02
 -0.27638897D-02 -0.47753884D-02 -0.77414657D-02 -0.11756158D-01 -0.16339954D-01
 -0.19426954D-01 -0.17306205D-01 -0.85946275D-02 -0.13836623D-02 -0.14598455D-04
 -0.72290294D-05 -0.24114832D-03 -0.84035362D-03 -0.30262494D-02 -0.66709903D-02
 -0.93906013D-02  0.44796229D-03  0.12289233D-01  0.72665463D-02  0.91735738D-07
  0.11111438D-05  0.23171733D-05  0.66452495D-05  0.34507855D-06 -0.28657539D-04
 -0.74045576D-04  0.60328850D-04  0.32809650D-03 -0.19061137D-03 -0.16752701D-03
  0.34188241D-01  0.45033912D-01  0.49679454D-01  0.41262676D-01  0.21911626D-01
  0.56533141D-02  0.41036187D+01  0.54054257D+01  0.59630307D+01  0.49527639D+01
  0.26300551D+01  0.67856796D+00 -0.71180872D+01 -0.93761860D+01 -0.10343401D+02
 -0.85910043D+01 -0.45620617D+01 -0.11770358D+01 -0.14252256D-05  0.13778164D-04
  0.19428650D-04  0.27788109D-04 -0.14071507D-06 -0.25484317D-04 -0.17585395D-03
  0.17000429D-02  0.23972379D-02  0.34286843D-02 -0.17362375D-04 -0.31444269D-02
  0.33297763D-03 -0.32190135D-02 -0.45391451D-02 -0.64921782D-02  0.32875477D-04
  0.59539397D-02  0.21732361D-03  0.26398278D-01 -0.46088179D-01 -0.43294697D-05
 -0.16712619D-03  0.22059126D-03 -0.18177046D-06 -0.11655976D-04  0.71512793D-05
  0.22385621D-04  0.42852708D-03 -0.45091270D-03  0.87576574D-05 -0.28664467D-05
 -0.39947896D-03  0.46928308D-05 -0.27386757D-03  0.26917474D-03 -0.33278231D-05
  0.16734165D-05  0.44937059D-03 -0.66201695D-06  0.38041333D-04 -0.37379316D-04
  0.16811150D-06 -0.12498563D-05 -0.16751399D-04 -0.29980348D-06 -0.32804199D-04
  0.10008117D-04 -0.10574858D-05  0.51278875D-04  0.52465277D-05  0.19568963D-05
  0.47133722D-04 -0.35270878D-04  0.16583048D-05  0.33678526D-06 -0.48109765D-04
 -0.13469812D-04 -0.37654357D-06  0.14126364D-04 -0.40054968D-04 -0.63381221D-06
  0.13020293D-03  0.80464405D-04 -0.77527763D-06 -0.14773103D-02 -0.27638898D-02
 -0.47753886D-02 -0.77414660D-02 -0.11756159D-01 -0.16339955D-01 -0.19426954D-01
 -0.17306206D-01 -0.85946279D-02 -0.13836624D-02 -0.14598455D-04 -0.72290296D-05
 -0.24114833D-03 -0.84035364D-03 -0.30262495D-02 -0.66709904D-02 -0.93906015D-02
  0.44796230D-03  0.12289233D-01  0.72665464D-02  0.91735730D-07  0.11111437D-05
  0.23171731D-05  0.66452489D-05  0.34507852D-06 -0.28657536D-04 -0.74045570D-04
  0.60328845D-04  0.32809652D-03 -0.19061137D-03 -0.16752701D-03  0.34188240D-01
  0.45033910D-01  0.49679452D-01  0.41262675D-01  0.21911625D-01  0.56533139D-02
 -0.41036187D+01 -0.54054258D+01 -0.59630308D+01 -0.49527640D+01 -0.26300551D+01
 -0.67856796D+00 -0.71180873D+01 -0.93761861D+01 -0.10343401D+02 -0.85910044D+01
 -0.45620617D+01 -0.11770358D+01 -0.14252256D-05  0.13778164D-04  0.19428649D-04
  0.27788108D-04 -0.14071507D-06 -0.25484316D-04  0.17585395D-03 -0.17000429D-02
 -0.23972379D-02 -0.34286844D-02  0.17362375D-04  0.31444270D-02  0.33297764D-03
 -0.32190136D-02 -0.45391451D-02 -0.64921783D-02  0.32875477D-04  0.59539398D-02
  0.21732361D-03 -0.26398278D-01 -0.46088179D-01 -0.43294696D-05  0.16712619D-03
  0.22059127D-03 -0.18177045D-06  0.11655976D-04  0.71512795D-05  0.22385621D-04
  0.42852709D-03 -0.45091271D-03 -0.87576573D-05 -0.28664469D-05  0.39947897D-03
  0.46928300D-05 -0.27386758D-03  0.26917475D-03  0.33278231D-05  0.16734166D-05
 -0.44937059D-03 -0.66201700D-06  0.38041333D-04 -0.37379316D-04 -0.16811149D-06
 -0.12498563D-05  0.16751398D-04 -0.29980349D-06  0.32804199D-04  0.10008117D-04
 -0.10574858D-05 -0.51278875D-04  0.52465273D-05  0.19568963D-05 -0.47133722D-04
 -0.35270878D-04 -0.16583048D-05  0.33678525D-06  0.48109766D-04 -0.13469812D-04
 -0.37654359D-06 -0.14126364D-04 -0.40054968D-04 -0.63381217D-06 -0.13020293D-03
  0.80464404D-04  0.77527758D-06
MO    3     MO 0.0        OCC NO =    2.0000335  ORB. ENERGY =    0.000000
  0.65938766D-11  0.12289902D-10  0.20839256D-10  0.31537998D-10  0.39341166D-10
  0.33760573D-10  0.12928506D-10  0.74808207D-15  0.80264296D-14  0.29586931D-13
  0.86510450D-13  0.10424930D-12 -0.12557933D-12  0.58768536D-12 -0.58605734D-13
 -0.26441047D-13 -0.41394320D-11 -0.40138566D-11 -0.27077240D-11  0.24742909D-04
  0.23992298D-04  0.16185063D-04 -0.50156239D-12 -0.48634680D-12 -0.32808668D-12
 -0.11698798D-11  0.71019757D-05 -0.75608226D-13 -0.22871032D-12  0.27341764D-04
 -0.40004103D-13  0.13210112D-13  0.27209258D-05 -0.25998350D-14 -0.29604446D-13
  0.28378603D-13  0.12258426D-14  0.11478193D-03 -0.27454291D-12  0.25145460D-04
  0.11826446D-13 -0.23168409D-13  0.11341963D-13  0.33560453D-04  0.11393473D-12
 -0.12161293D-04 -0.19515429D-14 -0.83398678D-14  0.10291411D-13 -0.15845278D-03
  0.12984051D-13 -0.75146238D-05  0.48871239D-13 -0.40216076D-05  0.52781114D-14
 -0.25273922D-12  0.21149309D-04 -0.56108192D-15  0.10612550D-12 -0.90844867D-05
 -0.15273252D-13 -0.78010336D-03 -0.23604228D-13  0.11950351D-05 -0.98864697D-14
  0.10444638D-12 -0.73427876D-05 -0.58040685D-14 -0.33633696D-13  0.37576823D-05
  0.35463478D-13  0.24247384D-03  0.36788951D-11  0.68582015D-11  0.11591295D-10
  0.17423878D-10  0.21402114D-10  0.18062629D-10  0.67920202D-11  0.13801731D-14
  0.10315939D-13  0.38553019D-13  0.10755692D-12  0.14409662D-12 -0.17015124D-12
  0.19011951D-12  0.21328626D-12  0.65756039D-14  0.29796859D-11  0.27936449D-11
  0.19892416D-11 -0.32923515D-04 -0.30867888D-04 -0.21979775D-04  0.13746472D-12
  0.12888192D-12  0.91771603D-13  0.65625997D-12 -0.25903344D-05 -0.54351520D-13
  0.65601785D-13 -0.19300508D-04 -0.27301576D-13 -0.13550250D-13 -0.17347451D-05
  0.22600248D-14  0.27742582D-14 -0.56603844D-13  0.53829586D-13  0.12033210D-02
 -0.82518604D-12  0.11342088D-04 -0.49827311D-13  0.49026591D-13  0.80072057D-15
 -0.45937703D-04  0.50857125D-13 -0.20923955D-04 -0.44442938D-14 -0.44611233D-14
  0.89054171D-14  0.72311148D-04 -0.35192331D-13 -0.35066700D-05 -0.65442417D-13
  0.15389522D-05 -0.21479480D-14  0.10849125D-12 -0.36037299D-05  0.34389482D-15
  0.87836003D-13 -0.10131268D-05  0.60999492D-14 -0.35036107D-03  0.25229012D-13
  0.16704014D-06  0.55816610D-14 -0.88999231D-13  0.26764988D-05 -0.54611986D-14
  0.13312196D-13 -0.31776193D-05 -0.11283784D-13  0.35473608D-03 -0.20108082D-03
 -0.37620076D-03 -0.64999147D-03 -0.10537125D-02 -0.16001636D-02 -0.22240769D-02
 -0.26442570D-02 -0.23555960D-02 -0.11698388D-02 -0.18833415D-03 -0.19870365D-05
 -0.94103631D-06 -0.31391396D-04 -0.10939273D-03 -0.39394093D-03 -0.86839376D-03
 -0.12224181D-02  0.58313330D-04  0.15997464D-02  0.94592005D-03 -0.18043949D-07
 -0.21855629D-06 -0.45577610D-06 -0.13070865D-05 -0.67875182D-07  0.56367909D-05
  0.14564385D-04 -0.11866375D-04  0.53861604D-04 -0.25522070D-05 -0.80579528D-05
  0.82135556D+01  0.10819174D+02  0.11935243D+02  0.99131535D+01  0.52641596D+01
  0.13581807D+01 -0.95546704D-01 -0.12585736D+00 -0.13884037D+00 -0.11531780D+00
 -0.61236951D-01 -0.15799453D-01 -0.36375064D-01 -0.47914468D-01 -0.52857159D-01
 -0.43902009D-01 -0.23313185D-01 -0.60149236D-02 -0.35883640D-03  0.34689994D-02
  0.48916513D-02  0.69963554D-02 -0.35428559D-04 -0.64163178D-02  0.45187449D-05
 -0.43684318D-04 -0.61599449D-04 -0.88103507D-04  0.44614376D-06  0.80799226D-04
  0.19123604D-05 -0.18487470D-04 -0.26069262D-04 -0.37285941D-04  0.18881076D-06
  0.34194725D-04  0.53684083D-01 -0.63421652D-03 -0.24684149D-03 -0.42410390D-03
  0.35305653D-05 -0.43694005D-05 -0.15174163D-04  0.32841554D-06 -0.29884367D-06
  0.84434882D-05 -0.89387352D-05  0.49524704D-06  0.90715360D-03  0.51076982D-03
 -0.35099423D-05 -0.56025853D-05  0.53239245D-05  0.27866086D-06 -0.47158595D-03
 -0.31775167D-03  0.98815327D-05  0.54238645D-06  0.41328362D-06 -0.95567007D-06
  0.21548426D-04  0.36847169D-04 -0.94846696D-06  0.22707652D-04 -0.13830917D-05
  0.73070311D-06  0.41978508D-04  0.19782131D-05 -0.17412197D-05 -0.11010146D-03
  0.21710620D-05 -0.45088966D-06  0.97216450D-05  0.17568007D-04  0.10260227D-05
 -0.10150719D-05 -0.90533613D-04 -0.33840391D-05 -0.78969857D-06  0.37829592D-04
  0.30597096D-06  0.38349143D-05 -0.14737378D-03  0.20108087D-03  0.37620085D-03
  0.64999163D-03  0.10537128D-02  0.16001640D-02  0.22240774D-02  0.26442576D-02
  0.23555966D-02  0.11698391D-02  0.18833419D-03  0.19870370D-05  0.94103637D-06
  0.31391398D-04  0.10939274D-03  0.39394096D-03  0.86839382D-03  0.12224182D-02
 -0.58313333D-04 -0.15997465D-02 -0.94592011D-03  0.18043951D-07  0.21855631D-06
  0.45577614D-06  0.13070866D-05  0.67875188D-07 -0.56367914D-05 -0.14564386D-04
  0.11866377D-04 -0.53861608D-04  0.25522069D-05  0.80579528D-05 -0.82135556D+01
 -0.10819174D+02 -0.11935243D+02 -0.99131535D+01 -0.52641596D+01 -0.13581807D+01
 -0.95546704D-01 -0.12585736D+00 -0.13884037D+00 -0.11531780D+00 -0.61236951D-01
 -0.15799453D-01  0.36375065D-01  0.47914470D-01  0.52857161D-01  0.43902011D-01
  0.23313186D-01  0.60149239D-02  0.35883640D-03 -0.34689994D-02 -0.48916513D-02
 -0.69963554D-02  0.35428559D-04  0.64163178D-02  0.45187449D-05 -0.43684319D-04
 -0.61599449D-04 -0.88103507D-04  0.44614376D-06  0.80799226D-04 -0.19123605D-05
  0.18487471D-04  0.26069263D-04  0.37285943D-04 -0.18881077D-06 -0.34194726D-04
 -0.53684083D-01 -0.63421653D-03  0.24684150D-03  0.42410390D-03  0.35305654D-05
  0.43694004D-05  0.15174163D-04  0.32841554D-06  0.29884367D-06 -0.84434882D-05
  0.89387352D-05 -0.49524694D-06  0.90715360D-03 -0.51076982D-03 -0.35099424D-05
  0.56025854D-05 -0.53239245D-05 -0.27866090D-06 -0.47158595D-03  0.31775167D-03
  0.98815329D-05 -0.54238645D-06 -0.41328363D-06  0.95567008D-06  0.21548426D-04
 -0.36847169D-04 -0.94846695D-06 -0.22707652D-04 -0.13830917D-05 -0.73070311D-06
 -0.41978508D-04  0.19782131D-05  0.17412197D-05  0.11010146D-03  0.21710620D-05
  0.45088967D-06  0.97216451D-05 -0.17568007D-04  0.10260227D-05  0.10150719D-05
  0.90533613D-04 -0.33840391D-05  0.78969859D-06 -0.37829592D-04  0.30597099D-06
 -0.38349144D-05 -0.14737378D-03
MO    4     MO 0.0        OCC NO =    2.0000300  ORB. ENERGY =    0.000000
 -0.19924011D-03 -0.37135081D-03 -0.62967748D-03 -0.95294991D-03 -0.11887299D-02
 -0.10201071D-02 -0.39064683D-03 -0.11418214D-06 -0.12250995D-05 -0.45159473D-05
 -0.13204365D-04 -0.15911902D-04  0.19167572D-04 -0.13884203D-04  0.49146425D-05
 -0.24929606D-06 -0.52007991D-02 -0.50430256D-02 -0.34019953D-02 -0.51787886D-13
 -0.50216829D-13 -0.33875976D-13 -0.55303203D-04 -0.53625504D-04 -0.36175448D-04
 -0.14811199D-02  0.37144091D-13 -0.20835775D-04 -0.31065123D-03  0.23565705D-13
 -0.24542891D-05  0.14435779D-04  0.30428013D-14  0.52103811D-07 -0.33392970D-05
  0.59511644D-05 -0.26118675D-05 -0.10298695D-12 -0.38601307D-03  0.15205215D-13
  0.22907786D-05 -0.25608171D-05  0.27003843D-06 -0.23312840D-13  0.17456298D-03
  0.92233862D-14  0.17421988D-05 -0.40991046D-05  0.23569059D-05  0.12910294D-12
  0.27553930D-04  0.34297013D-14  0.62846738D-04  0.13688352D-13  0.69719055D-05
 -0.33236151D-03 -0.33966792D-13  0.21285459D-05  0.14382129D-03 -0.70982639D-14
 -0.23044262D-04  0.64023101D-12 -0.26613712D-04 -0.11811249D-14 -0.28469774D-05
  0.13858777D-03  0.20837253D-13 -0.21918266D-05 -0.58746636D-04 -0.17293878D-13
  0.10732759D-04 -0.19794165D-12  0.49322943D-03  0.91947903D-03  0.15540448D-02
  0.23360192D-02  0.28693812D-02  0.24216565D-02  0.91060609D-03  0.12306053D-06
  0.91980119D-06  0.34375071D-05  0.95901095D-05  0.12848103D-04 -0.15171214D-04
  0.33391402D-04  0.73730373D-06  0.37999846D-05  0.37014470D-02  0.34703419D-02
  0.24710901D-02  0.13583097D-12  0.12735016D-12  0.90680903D-13  0.43847599D-04
  0.41109911D-04  0.29272706D-04  0.84370312D-03 -0.17842482D-13  0.25572501D-05
  0.87947676D-04  0.46984552D-13  0.98115643D-05 -0.15969561D-04 -0.31371743D-15
 -0.10632107D-06 -0.86179147D-05  0.46625478D-05  0.39553669D-05 -0.97441083D-12
 -0.10321344D-02 -0.79972946D-13 -0.12580312D-05  0.53988853D-05 -0.41408541D-05
  0.41097904D-13  0.91051541D-04  0.47134947D-15 -0.54805344D-06  0.32277813D-05
 -0.26797279D-05 -0.57697773D-13 -0.41687137D-04 -0.98120004D-14 -0.86510187D-04
 -0.18503586D-13  0.15902846D-05  0.13298948D-03 -0.14917842D-14  0.68003296D-07