 cl2co-wavefunction
GAUSSIAN            192 MOL ORBITALS    372 PRIMITIVES        4 NUCLEI
  O    1    (CENTRE  1)   0.00000000  0.00000000  1.29143317  CHARGE =  8.0
  C    2    (CENTRE  2)   0.00000000  0.00000000 -0.95372021  CHARGE =  6.0
  Cl   3    (CENTRE  3)   0.00000000 -2.73418805 -2.77752892  CHARGE = 17.0
  Cl   4    (CENTRE  4)   0.00000000  2.73418805 -2.77752892  CHARGE = 17.0
CENTRE ASSIGNMENTS    1  1  1  1  1  1  1  1  1  1  1  1  1  1  1  1  1  1  1  1
CENTRE ASSIGNMENTS    1  1  1  1  1  1  1  1  1  1  1  1  1  1  1  1  1  1  1  1
CENTRE ASSIGNMENTS    1  1  1  1  1  1  1  1  1  1  1  1  1  1  1  1  1  1  1  1
CENTRE ASSIGNMENTS    1  1  1  1  1  1  1  1  1  1  1  1  2  2  2  2  2  2  2  2
CENTRE ASSIGNMENTS    2  2  2  2  2  2  2  2  2  2  2  2  2  2  2  2  2  2  2  2
CENTRE ASSIGNMENTS    2  2  2  2  2  2  2  2  2  2  2  2  2  2  2  2  2  2  2  2
CENTRE ASSIGNMENTS    2  2  2  2  2  2  2  2  2  2  2  2  2  2  2  2  2  2  2  2
CENTRE ASSIGNMENTS    2  2  2  2  3  3  3  3  3  3  3  3  3  3  3  3  3  3  3  3
CENTRE ASSIGNMENTS    3  3  3  3  3  3  3  3  3  3  3  3  3  3  3  3  3  3  3  3
CENTRE ASSIGNMENTS    3  3  3  3  3  3  3  3  3  3  3  3  3  3  3  3  3  3  3  3
CENTRE ASSIGNMENTS    3  3  3  3  3  3  3  3  3  3  3  3  3  3  3  3  3  3  3  3
CENTRE ASSIGNMENTS    3  3  3  3  3  3  3  3  3  3  3  3  3  3  3  3  3  3  3  3
CENTRE ASSIGNMENTS    3  3  3  3  3  3  3  3  3  3  3  3  3  3  3  3  3  3  4  4
CENTRE ASSIGNMENTS    4  4  4  4  4  4  4  4  4  4  4  4  4  4  4  4  4  4  4  4
CENTRE ASSIGNMENTS    4  4  4  4  4  4  4  4  4  4  4  4  4  4  4  4  4  4  4  4
CENTRE ASSIGNMENTS    4  4  4  4  4  4  4  4  4  4  4  4  4  4  4  4  4  4  4  4
CENTRE ASSIGNMENTS    4  4  4  4  4  4  4  4  4  4  4  4  4  4  4  4  4  4  4  4
CENTRE ASSIGNMENTS    4  4  4  4  4  4  4  4  4  4  4  4  4  4  4  4  4  4  4  4
CENTRE ASSIGNMENTS    4  4  4  4  4  4  4  4  4  4  4  4
TYPE ASSIGNMENTS      1  1  1  1  1  1  1  1  1  1  1  1  1  1  1  1  2  2  2  3
TYPE ASSIGNMENTS      3  3  4  4  4  2  3  4  2  3  4  2  3  4  5  6  7  8  9 10
TYPE ASSIGNMENTS      5  6  7  8  9 10  5  6  7  8  9 10 11 12 13 17 14 15 18 19
TYPE ASSIGNMENTS     16 20 11 12 13 17 14 15 18 19 16 20  1  1  1  1  1  1  1  1
TYPE ASSIGNMENTS      1  1  1  1  1  1  1  1  2  2  2  3  3  3  4  4  4  2  3  4
TYPE ASSIGNMENTS      2  3  4  2  3  4  5  6  7  8  9 10  5  6  7  8  9 10  5  6
TYPE ASSIGNMENTS      7  8  9 10 11 12 13 17 14 15 18 19 16 20 11 12 13 17 14 15
TYPE ASSIGNMENTS     18 19 16 20  1  1  1  1  1  1  1  1  1  1  1  1  1  1  1  1
TYPE ASSIGNMENTS      1  1  1  1  1  1  1  1  1  1  1  1  1  1  1  2  2  2  2  2
TYPE ASSIGNMENTS      2  3  3  3  3  3  3  4  4  4  4  4  4  2  2  2  2  2  2  3
TYPE ASSIGNMENTS      3  3  3  3  3  4  4  4  4  4  4  2  3  4  2  3  4  2  3  4
TYPE ASSIGNMENTS      5  6  7  8  9 10  5  6  7  8  9 10  5  6  7  8  9 10 11 12
TYPE ASSIGNMENTS     13 17 14 15 18 19 16 20 11 12 13 17 14 15 18 19 16 20  1  1
TYPE ASSIGNMENTS      1  1  1  1  1  1  1  1  1  1  1  1  1  1  1  1  1  1  1  1
TYPE ASSIGNMENTS      1  1  1  1  1  1  1  1  1  2  2  2  2  2  2  3  3  3  3  3
TYPE ASSIGNMENTS      3  4  4  4  4  4  4  2  2  2  2  2  2  3  3  3  3  3  3  4
TYPE ASSIGNMENTS      4  4  4  4  4  2  3  4  2  3  4  2  3  4  5  6  7  8  9 10
TYPE ASSIGNMENTS      5  6  7  8  9 10  5  6  7  8  9 10 11 12 13 17 14 15 18 19
TYPE ASSIGNMENTS     16 20 11 12 13 17 14 15 18 19 16 20
EXPONENTS  0.1533000D+05 0.2299000D+04 0.5224000D+03 0.1473000D+03 0.4755000D+02
EXPONENTS  0.1676000D+02 0.6207000D+01 0.5224000D+03 0.1473000D+03 0.4755000D+02
EXPONENTS  0.1676000D+02 0.6207000D+01 0.6882000D+00 0.1752000D+01 0.2384000D+00
EXPONENTS  0.7376000D-01 0.3446000D+02 0.7749000D+01 0.2280000D+01 0.3446000D+02
EXPONENTS  0.7749000D+01 0.2280000D+01 0.3446000D+02 0.7749000D+01 0.2280000D+01
EXPONENTS  0.7156000D+00 0.7156000D+00 0.7156000D+00 0.2140000D+00 0.2140000D+00
EXPONENTS  0.2140000D+00 0.5974000D-01 0.5974000D-01 0.5974000D-01 0.2314000D+01
EXPONENTS  0.2314000D+01 0.2314000D+01 0.2314000D+01 0.2314000D+01 0.2314000D+01
EXPONENTS  0.6450000D+00 0.6450000D+00 0.6450000D+00 0.6450000D+00 0.6450000D+00
EXPONENTS  0.6450000D+00 0.2140000D+00 0.2140000D+00 0.2140000D+00 0.2140000D+00
EXPONENTS  0.2140000D+00 0.2140000D+00 0.1428000D+01 0.1428000D+01 0.1428000D+01
EXPONENTS  0.1428000D+01 0.1428000D+01 0.1428000D+01 0.1428000D+01 0.1428000D+01
EXPONENTS  0.1428000D+01 0.1428000D+01 0.5000000D+00 0.5000000D+00 0.5000000D+00
EXPONENTS  0.5000000D+00 0.5000000D+00 0.5000000D+00 0.5000000D+00 0.5000000D+00
EXPONENTS  0.5000000D+00 0.5000000D+00 0.8236000D+04 0.1235000D+04 0.2808000D+03
EXPONENTS  0.7927000D+02 0.2559000D+02 0.8997000D+01 0.3319000D+01 0.2808000D+03
EXPONENTS  0.7927000D+02 0.2559000D+02 0.8997000D+01 0.3319000D+01 0.3643000D+00
EXPONENTS  0.9059000D+00 0.1285000D+00 0.4402000D-01 0.1871000D+02 0.4133000D+01
EXPONENTS  0.1200000D+01 0.1871000D+02 0.4133000D+01 0.1200000D+01 0.1871000D+02
EXPONENTS  0.4133000D+01 0.1200000D+01 0.3827000D+00 0.3827000D+00 0.3827000D+00
EXPONENTS  0.1209000D+00 0.1209000D+00 0.1209000D+00 0.3569000D-01 0.3569000D-01
EXPONENTS  0.3569000D-01 0.1097000D+01 0.1097000D+01 0.1097000D+01 0.1097000D+01
EXPONENTS  0.1097000D+01 0.1097000D+01 0.3180000D+00 0.3180000D+00 0.3180000D+00
EXPONENTS  0.3180000D+00 0.3180000D+00 0.3180000D+00 0.1000000D+00 0.1000000D+00
EXPONENTS  0.1000000D+00 0.1000000D+00 0.1000000D+00 0.1000000D+00 0.7610000D+00
EXPONENTS  0.7610000D+00 0.7610000D+00 0.7610000D+00 0.7610000D+00 0.7610000D+00
EXPONENTS  0.7610000D+00 0.7610000D+00 0.7610000D+00 0.7610000D+00 0.2680000D+00
EXPONENTS  0.2680000D+00 0.2680000D+00 0.2680000D+00 0.2680000D+00 0.2680000D+00
EXPONENTS  0.2680000D+00 0.2680000D+00 0.2680000D+00 0.2680000D+00 0.4561000D+06
EXPONENTS  0.6833000D+05 0.1555000D+05 0.4405000D+04 0.1439000D+04 0.5204000D+03
EXPONENTS  0.2031000D+03 0.8396000D+02 0.3620000D+02 0.1583000D+02 0.6334000D+01
EXPONENTS  0.4405000D+04 0.1439000D+04 0.5204000D+03 0.2031000D+03 0.8396000D+02
EXPONENTS  0.3620000D+02 0.1583000D+02 0.6334000D+01 0.2694000D+01 0.1439000D+04
EXPONENTS  0.2031000D+03 0.8396000D+02 0.3620000D+02 0.1583000D+02 0.6334000D+01
EXPONENTS  0.2694000D+01 0.4313000D+00 0.9768000D+00 0.1625000D+00 0.5910000D-01
EXPONENTS  0.6633000D+03 0.1568000D+03 0.4998000D+02 0.1842000D+02 0.7240000D+01
EXPONENTS  0.2922000D+01 0.6633000D+03 0.1568000D+03 0.4998000D+02 0.1842000D+02
EXPONENTS  0.7240000D+01 0.2922000D+01 0.6633000D+03 0.1568000D+03 0.4998000D+02
EXPONENTS  0.1842000D+02 0.7240000D+01 0.2922000D+01 0.1568000D+03 0.4998000D+02
EXPONENTS  0.1842000D+02 0.7240000D+01 0.2922000D+01 0.3818000D+00 0.1568000D+03
EXPONENTS  0.4998000D+02 0.1842000D+02 0.7240000D+01 0.2922000D+01 0.3818000D+00
EXPONENTS  0.1568000D+03 0.4998000D+02 0.1842000D+02 0.7240000D+01 0.2922000D+01
EXPONENTS  0.3818000D+00 0.1022000D+01 0.1022000D+01 0.1022000D+01 0.1301000D+00
EXPONENTS  0.1301000D+00 0.1301000D+00 0.4190000D-01 0.4190000D-01 0.4190000D-01
EXPONENTS  0.1046000D+01 0.1046000D+01 0.1046000D+01 0.1046000D+01 0.1046000D+01
EXPONENTS  0.1046000D+01 0.3440000D+00 0.3440000D+00 0.3440000D+00 0.3440000D+00
EXPONENTS  0.3440000D+00 0.3440000D+00 0.1350000D+00 0.1350000D+00 0.1350000D+00
EXPONENTS  0.1350000D+00 0.1350000D+00 0.1350000D+00 0.7060000D+00 0.7060000D+00
EXPONENTS  0.7060000D+00 0.7060000D+00 0.7060000D+00 0.7060000D+00 0.7060000D+00
EXPONENTS  0.7060000D+00 0.7060000D+00 0.7060000D+00 0.3120000D+00 0.3120000D+00
EXPONENTS  0.3120000D+00 0.3120000D+00 0.3120000D+00 0.3120000D+00 0.3120000D+00
EXPONENTS  0.3120000D+00 0.3120000D+00 0.3120000D+00 0.4561000D+06 0.6833000D+05
EXPONENTS  0.1555000D+05 0.4405000D+04 0.1439000D+04 0.5204000D+03 0.2031000D+03
EXPONENTS  0.8396000D+02 0.3620000D+02 0.1583000D+02 0.6334000D+01 0.4405000D+04
EXPONENTS  0.1439000D+04 0.5204000D+03 0.2031000D+03 0.8396000D+02 0.3620000D+02
EXPONENTS  0.1583000D+02 0.6334000D+01 0.2694000D+01 0.1439000D+04 0.2031000D+03
EXPONENTS  0.8396000D+02 0.3620000D+02 0.1583000D+02 0.6334000D+01 0.2694000D+01
EXPONENTS  0.4313000D+00 0.9768000D+00 0.1625000D+00 0.5910000D-01 0.6633000D+03
EXPONENTS  0.1568000D+03 0.4998000D+02 0.1842000D+02 0.7240000D+01 0.2922000D+01
EXPONENTS  0.6633000D+03 0.1568000D+03 0.4998000D+02 0.1842000D+02 0.7240000D+01
EXPONENTS  0.2922000D+01 0.6633000D+03 0.1568000D+03 0.4998000D+02 0.1842000D+02
EXPONENTS  0.7240000D+01 0.2922000D+01 0.1568000D+03 0.4998000D+02 0.1842000D+02
EXPONENTS  0.7240000D+01 0.2922000D+01 0.3818000D+00 0.1568000D+03 0.4998000D+02
EXPONENTS  0.1842000D+02 0.7240000D+01 0.2922000D+01 0.3818000D+00 0.1568000D+03
EXPONENTS  0.4998000D+02 0.1842000D+02 0.7240000D+01 0.2922000D+01 0.3818000D+00
EXPONENTS  0.1022000D+01 0.1022000D+01 0.1022000D+01 0.1301000D+00 0.1301000D+00
EXPONENTS  0.1301000D+00 0.4190000D-01 0.4190000D-01 0.4190000D-01 0.1046000D+01
EXPONENTS  0.1046000D+01 0.1046000D+01 0.1046000D+01 0.1046000D+01 0.1046000D+01
EXPONENTS  0.3440000D+00 0.3440000D+00 0.3440000D+00 0.3440000D+00 0.3440000D+00
EXPONENTS  0.3440000D+00 0.1350000D+00 0.1350000D+00 0.1350000D+00 0.1350000D+00
EXPONENTS  0.1350000D+00 0.1350000D+00 0.7060000D+00 0.7060000D+00 0.7060000D+00
EXPONENTS  0.7060000D+00 0.7060000D+00 0.7060000D+00 0.7060000D+00 0.7060000D+00
EXPONENTS  0.7060000D+00 0.7060000D+00 0.3120000D+00 0.3120000D+00 0.3120000D+00
EXPONENTS  0.3120000D+00 0.3120000D+00 0.3120000D+00 0.3120000D+00 0.3120000D+00
EXPONENTS  0.3120000D+00 0.3120000D+00
MO    1     MO 0.0        OCC NO =    2.0000388  ORB. ENERGY =    0.000000
  0.11066426D-12  0.20625998D-12  0.34974278D-12  0.52929851D-12  0.66025818D-12
  0.56659975D-12  0.21697760D-12 -0.11681412D-15 -0.12533388D-14 -0.46200428D-14
 -0.13508734D-13 -0.16278682D-13  0.19609397D-13 -0.11713276D-13 -0.13103611D-12
 -0.17149592D-12 -0.47730707D-12 -0.46282730D-12 -0.31222056D-12 -0.88611260D-03
 -0.85923115D-03 -0.57963226D-03 -0.94301652D-12 -0.91440881D-12 -0.61685478D-12
 -0.12760672D-12 -0.94895604D-03 -0.29908428D-12 -0.28724873D-13 -0.77758299D-03
 -0.27415305D-12  0.24211261D-15 -0.20895956D-04 -0.56123371D-14 -0.81946461D-13
  0.12383114D-12 -0.41884684D-13 -0.17603013D-14 -0.13790110D-13 -0.22048416D-03
  0.45545522D-13 -0.13411395D-12  0.88568426D-13 -0.40971281D-15  0.10983631D-13
 -0.47779466D-04 -0.35612292D-13 -0.50626309D-14  0.40674923D-13  0.12868249D-14
  0.28382829D-14  0.12272403D-03  0.40242693D-14 -0.14847841D-03 -0.17113350D-13
 -0.20907971D-13  0.22185729D-03  0.96527164D-14  0.88351628D-14  0.22357795D-03
  0.41687333D-13  0.42278567D-14 -0.24579364D-14 -0.82535637D-05 -0.13141753D-13
  0.11456882D-13 -0.19921065D-03 -0.16393008D-13 -0.40830725D-14  0.22397134D-03
  0.55818266D-13 -0.23811596D-14 -0.45778263D-12 -0.85339905D-12 -0.14423607D-11
 -0.21681371D-11 -0.26631681D-11 -0.22476199D-11 -0.84516378D-12  0.13536272D-14
  0.10117525D-13  0.37811499D-13  0.10548820D-12  0.14132510D-12 -0.16687859D-12
 -0.83854545D-13 -0.16678963D-13 -0.39849982D-13  0.32048352D-12  0.30047368D-12
  0.21395516D-12  0.11328201D-02  0.10620908D-02  0.75627193D-03 -0.79211554D-12
 -0.74265867D-12 -0.52881722D-12  0.68317303D-13  0.16280099D-03 -0.46436644D-12
  0.77060531D-14  0.70383673D-04  0.11302519D-12 -0.92275298D-15 -0.81054442D-05
  0.11629376D-13  0.45792620D-13 -0.41080824D-12  0.36501562D-12 -0.13832091D-13
 -0.92192882D-13  0.22352877D-03 -0.24837377D-13  0.71681192D-13 -0.46843815D-13
  0.21387682D-14  0.60648719D-14  0.56875554D-04  0.23103646D-14 -0.70967605D-13
  0.68657240D-13 -0.43477048D-15 -0.24857969D-14  0.56244564D-04 -0.61742681D-14
  0.25954914D-03 -0.80649167D-13  0.11866370D-13  0.30397369D-04  0.10707437D-12
  0.66564346D-14 -0.80904478D-03  0.13487313D-12  0.35436730D-14  0.28164536D-14
 -0.26658576D-03  0.40467527D-13 -0.97606594D-14  0.29224278D-04 -0.54610386D-13
  0.13112985D-14  0.77053302D-03 -0.66792196D-13 -0.37596888D-14 -0.45410636D-03
 -0.84958454D-03 -0.14678936D-02 -0.23796281D-02 -0.36136935D-02 -0.50226940D-02
 -0.59715984D-02 -0.53197073D-02 -0.26418791D-02 -0.42532019D-03 -0.44873792D-05
 -0.24275970D-05 -0.80980570D-04 -0.28220107D-03 -0.10162518D-02 -0.22402005D-02
 -0.31534793D-02  0.15043124D-03  0.41268754D-02  0.24401956D-02  0.24579530D-06
  0.29771813D-05  0.62085977D-05  0.17805177D-04  0.92459806D-06 -0.76784559D-04
 -0.19839655D-03  0.16164417D-03  0.13293786D-03 -0.10403777D-03 -0.52826892D-04
 -0.77109182D-09 -0.10157083D-08 -0.11204853D-08 -0.93065074D-09 -0.49420137D-09
 -0.12750654D-09 -0.46305974D+01 -0.60995801D+01 -0.67287916D+01 -0.55887883D+01
 -0.29678017D+01 -0.76570834D+00  0.67917461D+01  0.89463184D+01  0.98691896D+01
  0.81971347D+01  0.43529060D+01  0.11230725D+01  0.30536390D-13 -0.29520617D-12
 -0.41627151D-12 -0.59537838D-12  0.30149123D-14  0.54601813D-12  0.23695821D-03
 -0.22907596D-02 -0.32302101D-02 -0.46200549D-02  0.23395308D-04  0.42370261D-02
 -0.33706643D-03  0.32585414D-02  0.45948835D-02  0.65718989D-02 -0.33279171D-04
 -0.60270512D-02 -0.51017760D-11 -0.29729277D-01  0.43821970D-01  0.36639187D-13
  0.34772360D-03 -0.56034520D-03  0.18284961D-14  0.10800068D-04 -0.16878458D-04
 -0.13854264D-04 -0.75143475D-03  0.76528901D-03 -0.49147943D-13 -0.46491018D-13
  0.70163729D-03  0.57302531D-04  0.44446305D-03 -0.50176558D-03  0.41605965D-13
  0.26234513D-13 -0.36927782D-03  0.41203001D-05 -0.60593533D-06 -0.35143647D-05
 -0.31295323D-15 -0.68663694D-17 -0.52673754D-05  0.10544352D-14 -0.12618681D-04
 -0.38739789D-05 -0.10499637D-14  0.17860389D-04  0.37701513D-04 -0.21133419D-14
  0.19995655D-04 -0.26079576D-04 -0.14133831D-14 -0.32861394D-14  0.77465574D-04
 -0.41446473D-04  0.71038748D-14  0.10250625D-04  0.51531488D-04  0.27545435D-14
 -0.24264735D-03  0.72807932D-04  0.12810646D-13  0.45410635D-03  0.84958453D-03
  0.14678936D-02  0.23796280D-02  0.36136935D-02  0.50226940D-02  0.59715983D-02
  0.53197073D-02  0.26418791D-02  0.42532019D-03  0.44873792D-05  0.24275969D-05
  0.80980569D-04  0.28220107D-03  0.10162517D-02  0.22402005D-02  0.31534793D-02
 -0.15043124D-03 -0.41268753D-02 -0.24401955D-02 -0.24579530D-06 -0.29771813D-05
 -0.62085977D-05 -0.17805177D-04 -0.92459806D-06  0.76784560D-04  0.19839656D-03
 -0.16164417D-03 -0.13293786D-03  0.10403777D-03  0.52826892D-04 -0.62775854D-09
 -0.82690486D-09 -0.91220550D-09 -0.75765809D-09 -0.40233747D-09 -0.10380517D-09
 -0.46305974D+01 -0.60995801D+01 -0.67287916D+01 -0.55887883D+01 -0.29678017D+01
 -0.76570834D+00 -0.67917460D+01 -0.89463184D+01 -0.98691896D+01 -0.81971347D+01
 -0.43529060D+01 -0.11230725D+01  0.24349309D-13 -0.23539345D-12 -0.33192934D-12
 -0.47474676D-12  0.24040508D-14  0.43538755D-12  0.23695821D-03 -0.22907596D-02
 -0.32302101D-02 -0.46200549D-02  0.23395308D-04  0.42370261D-02  0.33706643D-03
 -0.32585414D-02 -0.45948835D-02 -0.65718989D-02  0.33279171D-04  0.60270511D-02
 -0.41593564D-11 -0.29729277D-01 -0.43821970D-01  0.28767697D-13  0.34772360D-03
  0.56034520D-03  0.15659559D-14  0.10800068D-04  0.16878458D-04  0.13854264D-04
  0.75143475D-03 -0.76528901D-03  0.28798770D-13 -0.35216907D-13  0.70163729D-03
 -0.57302531D-04 -0.44446305D-03  0.50176558D-03 -0.31501556D-13  0.19813836D-13
 -0.36927782D-03 -0.41203001D-05  0.60593528D-06  0.35143648D-05  0.30481534D-15
  0.40006627D-15 -0.52673754D-05  0.10533385D-14 -0.12618682D-04  0.38739789D-05
  0.32036848D-14  0.17860389D-04 -0.37701513D-04 -0.63637002D-14  0.19995655D-04
  0.26079576D-04  0.61404462D-14 -0.26613569D-14  0.77465574D-04  0.41446473D-04
  0.45209416D-14  0.10250625D-04 -0.51531488D-04  0.34631290D-14 -0.24264735D-03
 -0.72807932D-04 -0.99408929D-14
MO    2     MO 0.0        OCC NO =    2.0000378  ORB. ENERGY =    0.000000
  0.54864190D-02  0.10225783D-01  0.17339252D-01  0.26241114D-01  0.32733722D-01
  0.28090403D-01  0.10757132D-01  0.88089334D-06  0.94514075D-05  0.34839668D-04
  0.10186914D-03  0.12275727D-03 -0.14787414D-03  0.54184597D-03  0.18703767D-03
  0.29631638D-03 -0.15762537D-12 -0.15284359D-12 -0.10310738D-12 -0.83529800D-12
 -0.80995808D-12 -0.54639293D-12  0.16263008D-02  0.15769648D-02  0.10638111D-02
 -0.50889420D-13 -0.65939642D-12  0.59782374D-03 -0.16124089D-13 -0.54688748D-12
  0.50226658D-03 -0.13934187D-14 -0.17081703D-13  0.10620567D-04  0.13010661D-03
 -0.22424083D-03  0.94134215D-04  0.90053855D-14 -0.13374910D-13 -0.17182469D-12
 -0.75771489D-04  0.25057583D-03 -0.17480434D-03 -0.94761844D-15  0.92133878D-14
 -0.18001218D-13  0.58439792D-04  0.24231186D-04 -0.82670978D-04  0.38079894D-14
  0.42536852D-14  0.95087294D-13  0.38189998D-14 -0.97624918D-13  0.25224069D-04
 -0.21813061D-13  0.11483116D-12 -0.28945042D-04  0.10356062D-13  0.17804359D-12
 -0.46727164D-04  0.30485416D-13 -0.61535982D-15 -0.30404959D-14  0.38179359D-04
  0.64547999D-14 -0.11938593D-12  0.28977570D-04 -0.46087205D-14  0.12850742D-12
 -0.14351565D-03 -0.60887561D-14 -0.40337369D-02 -0.75196982D-02 -0.12709314D-01
 -0.19104470D-01 -0.23466420D-01 -0.19804830D-01 -0.74471334D-02 -0.41886124D-05
 -0.31307283D-04 -0.11700246D-03 -0.32641865D-03 -0.43731100D-03  0.51638275D-03
 -0.11471878D-03 -0.79964188D-05  0.85145279D-04  0.11426782D-12  0.10713334D-12
  0.76285323D-13  0.10376787D-11  0.97288970D-12  0.69275542D-12  0.10127724D-02
  0.94953850D-03  0.67612798D-03  0.31161781D-13  0.10254654D-12  0.84614448D-03
  0.24787180D-14  0.10500993D-12 -0.19333059D-03  0.42163479D-15  0.12682195D-14
 -0.21838356D-04 -0.67321322D-04  0.68780591D-03 -0.62048459D-03 -0.21954203D-13
 -0.35871771D-13  0.13286924D-12  0.79790035D-04 -0.17255324D-03  0.92763209D-04
 -0.95433788D-15  0.99555001D-14  0.11255338D-12 -0.15970792D-06  0.11671172D-03
 -0.11655201D-03 -0.23290491D-14  0.56795053D-15  0.36783340D-13 -0.31924852D-14
  0.15875809D-12  0.13614561D-03  0.55356294D-14  0.22654610D-13 -0.17855435D-03
  0.40418260D-14 -0.49892887D-12 -0.22988248D-03  0.46117605D-14  0.12154378D-14
 -0.16802063D-12 -0.66078174D-04 -0.56371766D-14  0.19134705D-13  0.94488733D-04
  0.19908633D-14  0.48492718D-12  0.10374579D-03 -0.72153782D-14 -0.13525123D-02
 -0.25304062D-02 -0.43719806D-02 -0.70874943D-02 -0.10763040D-01 -0.14959613D-01
 -0.17785834D-01 -0.15844239D-01 -0.78685840D-02 -0.12667755D-02 -0.13365229D-04
 -0.66393605D-05 -0.22147795D-03 -0.77180632D-03 -0.27793995D-02 -0.61268404D-02
 -0.86246139D-02  0.41142219D-03  0.11286805D-01  0.66738171D-02  0.97287507D-07
  0.11783893D-05  0.24574066D-05  0.70474144D-05  0.36596242D-06 -0.30391869D-04
 -0.78526752D-04  0.63979901D-04  0.29152051D-03 -0.18939044D-03 -0.16591844D-03
 -0.43441090D-09 -0.57222077D-09 -0.63124909D-09 -0.52430179D-09 -0.27841880D-09
 -0.71833506D-10  0.40579422D+01  0.53452592D+01  0.58966576D+01  0.48976359D+01
  0.26007806D+01  0.67101498D+00 -0.71444224D+01 -0.94108756D+01 -0.10381669D+02
 -0.86227889D+01 -0.45789402D+01 -0.11813905D+01  0.17605794D-13 -0.17020149D-12
 -0.24000186D-12 -0.34326616D-12  0.17382515D-14  0.31480744D-12 -0.17400256D-03
  0.16821448D-02  0.23719998D-02  0.33925871D-02 -0.17179584D-04 -0.31113224D-02
  0.33452260D-03 -0.32339493D-02 -0.45602061D-02 -0.65223010D-02  0.33028014D-04
  0.59815652D-02 -0.28685179D-11  0.26098989D-01 -0.46255349D-01  0.21477328D-13
 -0.15946818D-03  0.22051756D-03  0.60346507D-15 -0.11415512D-04  0.72293733D-05
  0.24188413D-04  0.42843141D-03 -0.45261982D-03 -0.34209989D-13 -0.29986027D-13
 -0.41530188D-03  0.33504066D-05 -0.27222479D-03  0.26887438D-03  0.24368481D-13
  0.16847617D-13  0.45802108D-03 -0.11343182D-05  0.38811223D-04 -0.37676905D-04
 -0.28308349D-15 -0.91957801D-15 -0.17093948D-04 -0.60460854D-15 -0.32600729D-04
  0.95990662D-05  0.73501385D-15  0.50079624D-04  0.63583358D-05  0.10788118D-14
  0.47722564D-04 -0.35155534D-04 -0.17429313D-14 -0.15341760D-14 -0.48095341D-04
 -0.13694290D-04  0.41138933D-14  0.13615192D-04 -0.41510153D-04  0.48863468D-15
  0.13067083D-03  0.82593023D-04  0.76981389D-14 -0.13525123D-02 -0.25304062D-02
 -0.43719806D-02 -0.70874943D-02 -0.10763040D-01 -0.14959613D-01 -0.17785834D-01
 -0.15844239D-01 -0.78685841D-02 -0.12667755D-02 -0.13365229D-04 -0.66393606D-05
 -0.22147796D-03 -0.77180634D-03 -0.27793996D-02 -0.61268405D-02 -0.86246140D-02
  0.41142220D-03  0.11286805D-01  0.66738172D-02  0.97287505D-07  0.11783893D-05
  0.24574066D-05  0.70474142D-05  0.36596241D-06 -0.30391868D-04 -0.78526750D-04
  0.63979900D-04  0.29152051D-03 -0.18939044D-03 -0.16591844D-03 -0.71565632D-10
 -0.94268680D-10 -0.10399311D-09 -0.86374420D-10 -0.45867214D-10 -0.11833981D-10
 -0.40579423D+01 -0.53452592D+01 -0.58966577D+01 -0.48976359D+01 -0.26007806D+01
 -0.67101498D+00 -0.71444224D+01 -0.94108756D+01 -0.10381669D+02 -0.86227889D+01
 -0.45789402D+01 -0.11813905D+01  0.23287034D-14 -0.22512406D-13 -0.31744842D-13
 -0.45403522D-13  0.22991704D-15  0.41639312D-13  0.17400256D-03 -0.16821448D-02
 -0.23719998D-02 -0.33925872D-02  0.17179584D-04  0.31113224D-02  0.33452260D-03
 -0.32339493D-02 -0.45602061D-02 -0.65223010D-02  0.33028014D-04  0.59815652D-02
 -0.47382704D-12 -0.26098989D-01 -0.46255349D-01  0.74359880D-14  0.15946818D-03
  0.22051756D-03  0.61607376D-16  0.11415512D-04  0.72293733D-05  0.24188413D-04
  0.42843141D-03 -0.45261982D-03 -0.49999652D-14 -0.48445302D-14  0.41530188D-03
  0.33504064D-05 -0.27222479D-03  0.26887438D-03 -0.45773604D-14  0.34046125D-14
 -0.45802109D-03 -0.11343182D-05  0.38811223D-04 -0.37676905D-04 -0.15637204D-14
  0.16149375D-14  0.17093948D-04  0.11737545D-14  0.32600729D-04  0.95990662D-05
  0.64913427D-15 -0.50079623D-04  0.63583357D-05 -0.41703979D-14 -0.47722564D-04
 -0.35155534D-04  0.26970020D-14 -0.11998504D-14  0.48095342D-04 -0.13694290D-04
  0.83779462D-15 -0.13615192D-04 -0.41510153D-04  0.27617567D-14 -0.13067083D-03
  0.82593023D-04 -0.38055056D-14
MO    3     MO 0.0        OCC NO =    2.0000335  ORB. ENERGY =    0.000000
 -0.28849007D-10 -0.53769806D-10 -0.91174262D-10 -0.13798255D-09 -0.17212236D-09
 -0.14770659D-09 -0.56563776D-10 -0.38829515D-14 -0.41661521D-13 -0.15357221D-12
 -0.44903614D-12 -0.54111038D-12  0.65182479D-12 -0.25602206D-11 -0.13253970D-13
 -0.24814941D-13 -0.60790830D-11 -0.58946656D-11 -0.39765066D-11  0.13561863D-12
  0.13150445D-12  0.88712127D-13  0.15257810D-11  0.14794944D-11  0.99805816D-12
 -0.17198412D-11  0.46196886D-13  0.21818657D-12 -0.35143865D-12  0.30977230D-13
  0.11552766D-12  0.17210479D-13  0.51405652D-14  0.38381835D-14  0.95916092D-13
  0.22993194D-13 -0.11890929D-12  0.10474997D-03 -0.41292436D-12  0.30276392D-13
  0.13409129D-13  0.16817362D-13 -0.30226491D-13  0.37709878D-04  0.19056743D-12
 -0.17022632D-13  0.95788345D-14  0.34840587D-14 -0.13062893D-13 -0.15701911D-03
  0.26848585D-13 -0.58534689D-14  0.70920171D-13  0.33902925D-14 -0.28140914D-13
 -0.38542938D-12  0.17346135D-14  0.51276604D-13  0.17266887D-12 -0.11905491D-13
  0.33146138D-13 -0.77967884D-03 -0.32357863D-13 -0.18480009D-14  0.50943875D-14
  0.15941797D-12  0.51927921D-15 -0.83067980D-14 -0.62344382D-13  0.50247236D-14
 -0.69763645D-14  0.24116627D-03  0.21592829D-10  0.40253384D-10  0.68033703D-10
  0.10226735D-09  0.12561712D-09  0.10601641D-09  0.39864940D-10  0.24302291D-14
  0.18164457D-13  0.67884722D-13  0.18938780D-12  0.25372744D-12 -0.29960480D-12
  0.17576352D-11  0.57715587D-13  0.93519794D-14  0.43809346D-11  0.41074046D-11
  0.29247168D-11 -0.18198926D-12 -0.17062650D-12 -0.12149623D-12 -0.86155182D-13
 -0.80775959D-13 -0.57517295D-13  0.97775020D-12  0.15256769D-13  0.15084293D-12
  0.96338298D-13  0.33435789D-13  0.54363160D-16 -0.18696191D-13 -0.18976281D-14
 -0.89139741D-16 -0.64066400D-13  0.46548919D-14  0.59411508D-13  0.12193008D-02
 -0.12087159D-11  0.41776638D-14  0.10724996D-13 -0.22860207D-13  0.12135211D-13
 -0.55435739D-04  0.97892241D-13 -0.71337416D-13 -0.10914213D-14  0.31060925D-14
 -0.20146712D-14  0.72982911D-04 -0.49258133D-13 -0.12873771D-13 -0.10214444D-12
  0.28040140D-14  0.43896619D-13  0.16890383D-12 -0.34623679D-14 -0.64742146D-13
  0.13752949D-12 -0.49496740D-14 -0.66947710D-13 -0.35563617D-03  0.38046669D-13
  0.27361080D-14 -0.11198431D-13 -0.13754750D-12 -0.55840863D-14  0.80482928D-14
  0.23407493D-13 -0.26242377D-14  0.25547000D-13  0.35554137D-03  0.14986104D-10
  0.28037401D-10  0.48442409D-10  0.78530837D-10  0.11925661D-09  0.16575547D-09
  0.19707055D-09  0.17555730D-09  0.87185466D-10  0.14036122D-10  0.14808938D-12
  0.98280721D-15  0.32784803D-13  0.11424848D-12  0.41142726D-12  0.90694019D-12
  0.12766791D-11 -0.60901753D-13 -0.16707563D-11 -0.98790772D-12 -0.22375111D-16
 -0.27101723D-15 -0.56517787D-15 -0.16208317D-14 -0.84167535D-16  0.69898125D-14
  0.18060333D-13 -0.14714709D-13 -0.13157619D-12  0.87455904D-13 -0.72341415D-14
  0.82141945D+01  0.10820016D+02  0.11936171D+02  0.99139247D+01  0.52645691D+01
  0.13582863D+01 -0.15706288D-09 -0.20688855D-09 -0.22823046D-09 -0.18956327D-09
 -0.10066335D-09 -0.25971672D-10 -0.28122327D-09 -0.37043683D-09 -0.40864981D-09
 -0.33941566D-09 -0.18023914D-09 -0.46502639D-10 -0.35936575D-03  0.34741168D-02
  0.48988674D-02  0.70066763D-02 -0.35480822D-04 -0.64257830D-02  0.62107847D-14
 -0.60041871D-13 -0.84665305D-13 -0.12109378D-12  0.61320187D-15  0.11105442D-12
  0.12540356D-13 -0.12123209D-12 -0.17094991D-12 -0.24450359D-12  0.12381318D-14
  0.22423285D-12  0.53696247D-01 -0.13058479D-11 -0.20351184D-11 -0.42184054D-03
  0.11132078D-13  0.15248054D-13 -0.14985941D-04  0.29536284D-15  0.79949311D-16
  0.23921970D-13 -0.22206563D-13 -0.17154078D-14  0.91512126D-03  0.50776397D-03
 -0.77725495D-13 -0.15153026D-13  0.59538319D-14  0.91991944D-14 -0.47935142D-03
 -0.31746574D-03  0.67923558D-13  0.89939694D-15 -0.36621519D-15 -0.53318174D-15
  0.22023429D-04  0.37571947D-04  0.31230867D-14  0.23357917D-04 -0.25775994D-16
  0.50500306D-14  0.41442947D-04  0.63983345D-15 -0.34310000D-14 -0.11151670D-03
 -0.56250546D-15 -0.11719092D-13  0.53233211D-05  0.17664392D-04 -0.26443016D-14
 -0.45968480D-14 -0.92465983D-04 -0.28801506D-14 -0.39918709D-14  0.39472806D-04
  0.10813055D-13  0.17782415D-13 -0.14644294D-03 -0.10442551D-11 -0.19536898D-11
 -0.33755427D-11 -0.54721513D-11 -0.83099868D-11 -0.11550100D-10 -0.13732184D-10
 -0.12233106D-10 -0.60752193D-11 -0.97805891D-12 -0.10319099D-13  0.77581002D-13
  0.25879724D-11  0.90185655D-11  0.32477315D-10  0.71592199D-10  0.10077871D-09
 -0.48074729D-11 -0.13188644D-09 -0.77983628D-10  0.18311453D-14  0.22179642D-13
  0.46253304D-13  0.13264642D-12  0.68881441D-14 -0.57203571D-12 -0.14780304D-11
  0.12042296D-11 -0.49386613D-11  0.61268820D-13  0.86352828D-14 -0.82141945D+01
 -0.10820016D+02 -0.11936171D+02 -0.99139247D+01 -0.52645691D+01 -0.13582863D+01
 -0.67340444D-09 -0.88703118D-09 -0.97853424D-09 -0.81274931D-09 -0.43159243D-09
 -0.11135310D-09  0.11622347D-09  0.15309350D-09  0.16888610D-09  0.14027313D-09
  0.74488923D-10  0.19218532D-10  0.35936575D-03 -0.34741168D-02 -0.48988674D-02
 -0.70066763D-02  0.35480822D-04  0.64257830D-02  0.27132274D-13 -0.26229737D-12
 -0.36986667D-12 -0.52900718D-12  0.26788179D-14  0.48514948D-12 -0.31529639D-14
  0.30480826D-13  0.42981147D-13  0.61474410D-13 -0.31129776D-15 -0.56377832D-13
 -0.53696247D-01 -0.45649754D-11  0.87542088D-12  0.42184054D-03  0.37886504D-13
 -0.77306125D-14  0.14985941D-04  0.75177673D-15  0.30871154D-15  0.14615504D-13
 -0.95253615D-14 -0.50901430D-14  0.91512126D-03 -0.50776398D-03  0.12815799D-12
  0.13482350D-13 -0.21192016D-13  0.77096666D-14 -0.47935142D-03  0.31746574D-03
  0.15707728D-14 -0.58748525D-15  0.59815613D-15 -0.10670881D-16  0.22023429D-04
 -0.37571947D-04  0.25049478D-14 -0.23357917D-04  0.61721751D-15  0.11125837D-14
 -0.41442947D-04 -0.12325550D-13  0.72866311D-14  0.11151670D-03  0.10473897D-13
 -0.10624382D-13  0.53233212D-05 -0.17664392D-04  0.30092300D-14  0.31545441D-15
  0.92465983D-04 -0.33190779D-14  0.64798965D-15 -0.39472806D-04 -0.57086121D-14
 -0.15943529D-14 -0.14644294D-03
MO    4     MO 0.0        OCC NO =    2.0000299  ORB. ENERGY =    0.000000
  0.11972613D-10  0.22314983D-10  0.37838189D-10  0.57264075D-10  0.71432420D-10
  0.61299644D-10  0.23474507D-10  0.13125770D-14  0.14083090D-13  0.51912921D-13
  0.15179033D-12  0.18291473D-12 -0.22034018D-12  0.11024191D-11 -0.27584765D-13
 -0.22690050D-13 -0.52450747D-02 -0.50859582D-02 -0.34309573D-02 -0.24889733D-14
 -0.24134668D-14 -0.16281105D-14 -0.82032648D-13 -0.79544075D-13 -0.53659963D-13
 -0.14890390D-02  0.51859917D-13  0.11437624D-12 -0.31437177D-03  0.19919350D-13
  0.10257436D-13  0.13753528D-04  0.56073499D-14  0.19018771D-14 -0.18471026D-13
  0.27592464D-14  0.15711779D-13 -0.10967393D-12 -0.38970332D-03  0.99381740D-14
  0.19993460D-13  0.14735869D-13 -0.34729329D-13 -0.46270751D-13  0.17566862D-03
  0.85667075D-14  0.11711657D-14  0.52100803D-15 -0.16921738D-14  0.18262293D-12
  0.28237915D-04  0.12022360D-13  0.61780384D-04  0.98845114D-14 -0.20953879D-13
 -0.33408826D-03 -0.35420658D-13  0.23994259D-13  0.14874711D-03  0.57671232D-14
  0.38867378D-13  0.90781670D-12 -0.26353509D-04  0.22021009D-14  0.58435885D-14
  0.13945744D-03  0.21077614D-13 -0.10270310D-13 -0.60396916D-04 -0.27683917D-13
 -0.72604558D-14 -0.28046954D-12  0.13697155D-10  0.25534256D-10  0.43156372D-10
  0.64872076D-10  0.79683726D-10  0.67250254D-10  0.25287852D-10  0.13969879D-14
  0.10441619D-13  0.39022714D-13  0.10886730D-12  0.14585216D-12 -0.17222421D-12
  0.11424847D-11 -0.32736928D-13  0.75033367D-14  0.37665057D-02  0.35313385D-02
  0.25145234D-02  0.17240338D-12  0.16163913D-12  0.11509669D-12 -0.17889425D-12
 -0.16772473D-12 -0.11943000D-12  0.85070831D-03  0.36372763D-14  0.78379262D-13
  0.86988654D-04  0.83652107D-13  0.14801039D-13 -0.15852883D-04 -0.11318147D-14
 -0.28078838D-15 -0.41712985D-13 -0.47215758D-13  0.88928743D-13 -0.14091636D-11
 -0.10376017D-02 -0.67130086D-13  0.14582093D-13 -0.24635505D-13  0.10053412D-13
  0.59492460D-13  0.94249150D-04 -0.69610893D-14  0.77756155D-15 -0.35756702D-14
  0.27981086D-14 -0.85906160D-13 -0.41137772D-04 -0.19639074D-13 -0.88407374D-04
 -0.22311868D-13  0.96291026D-14  0.14228774D-03  0.43109296D-16 -0.25663254D-13