 Entering Gaussian System, Link 0=/home/bruns/programas/chemistry/gaussian/g09/g09
 Input=GAUSSIAN.com
 Output=GAUSSIAN.log
 Initial command:
 /home/bruns/programas/chemistry/gaussian/g09/l1.exe /home/bruns/programas/chemistry/gaussian/work/Gau-44071.inp -scrdir=/home/bruns/programas/chemistry/gaussian/work/
 Entering Link 1 = /home/bruns/programas/chemistry/gaussian/g09/l1.exe PID=     44073.
  
 Copyright (c) 1988,1990,1992,1993,1995,1998,2003,2009,2010,
            Gaussian, Inc.  All Rights Reserved.
  
 This is part of the Gaussian(R) 09 program.  It is based on
 the Gaussian(R) 03 system (copyright 2003, Gaussian, Inc.),
 the Gaussian(R) 98 system (copyright 1998, Gaussian, Inc.),
 the Gaussian(R) 94 system (copyright 1995, Gaussian, Inc.),
 the Gaussian 92(TM) system (copyright 1992, Gaussian, Inc.),
 the Gaussian 90(TM) system (copyright 1990, Gaussian, Inc.),
 the Gaussian 88(TM) system (copyright 1988, Gaussian, Inc.),
 the Gaussian 86(TM) system (copyright 1986, Carnegie Mellon
 University), and the Gaussian 82(TM) system (copyright 1983,
 Carnegie Mellon University). Gaussian is a federally registered
 trademark of Gaussian, Inc.
  
 This software contains proprietary and confidential information,
 including trade secrets, belonging to Gaussian, Inc.
  
 This software is provided under written license and may be
 used, copied, transmitted, or stored only in accord with that
 written license.
  
 The following legend is applicable only to US Government
 contracts under FAR:
  
                    RESTRICTED RIGHTS LEGEND
  
 Use, reproduction and disclosure by the US Government is
 subject to restrictions as set forth in subparagraphs (a)
 and (c) of the Commercial Computer Software - Restricted
 Rights clause in FAR 52.227-19.
  
 Gaussian, Inc.
 340 Quinnipiac St., Bldg. 40, Wallingford CT 06492
  
  
 ---------------------------------------------------------------
 Warning -- This program may not be used in any manner that
 competes with the business of Gaussian, Inc. or will provide
 assistance to any competitor of Gaussian, Inc.  The licensee
 of this program is prohibited from giving any competitor of
 Gaussian, Inc. access to this program.  By using this program,
 the user acknowledges that Gaussian, Inc. is engaged in the
 business of creating and licensing software in the field of
 computational chemistry and represents and warrants to the
 licensee that it is not a competitor of Gaussian, Inc. and that
 it will not use this program in any manner prohibited above.
 ---------------------------------------------------------------
  

 Cite this work as:
 Gaussian 09, Revision B.01,
 M. J. Frisch, G. W. Trucks, H. B. Schlegel, G. E. Scuseria, 
 M. A. Robb, J. R. Cheeseman, G. Scalmani, V. Barone, B. Mennucci, 
 G. A. Petersson, H. Nakatsuji, M. Caricato, X. Li, H. P. Hratchian, 
 A. F. Izmaylov, J. Bloino, G. Zheng, J. L. Sonnenberg, M. Hada, 
 M. Ehara, K. Toyota, R. Fukuda, J. Hasegawa, M. Ishida, T. Nakajima, 
 Y. Honda, O. Kitao, H. Nakai, T. Vreven, J. A. Montgomery, Jr., 
 J. E. Peralta, F. Ogliaro, M. Bearpark, J. J. Heyd, E. Brothers, 
 K. N. Kudin, V. N. Staroverov, T. Keith, R. Kobayashi, J. Normand, 
 K. Raghavachari, A. Rendell, J. C. Burant, S. S. Iyengar, J. Tomasi, 
 M. Cossi, N. Rega, J. M. Millam, M. Klene, J. E. Knox, J. B. Cross, 
 V. Bakken, C. Adamo, J. Jaramillo, R. Gomperts, R. E. Stratmann, 
 O. Yazyev, A. J. Austin, R. Cammi, C. Pomelli, J. W. Ochterski, 
 R. L. Martin, K. Morokuma, V. G. Zakrzewski, G. A. Voth, 
 P. Salvador, J. J. Dannenberg, S. Dapprich, A. D. Daniels, 
 O. Farkas, J. B. Foresman, J. V. Ortiz, J. Cioslowski, 
 and D. J. Fox, Gaussian, Inc., Wallingford CT, 2010.
 
 ******************************************
 Gaussian 09:  EM64L-G09RevB.01 12-Aug-2010
                27-Nov-2021 
 ******************************************
 %nproc=8
 Will use up to    8 processors via shared memory.
 %mem=8GB
 -----------------------------------------------------
 # qcisd/aug-cc-pvtz nosymm density=current output=wfn
 -----------------------------------------------------
 1/30=1,38=1/1;
 2/12=2,15=1,17=6,18=5,40=1/2;
 3/5=16,6=1,7=10,11=9,16=1,25=1,30=1,71=1/1,2,3;
 4//1;
 5/5=2,38=5/2;
 8/6=4,9=120000,10=1/1,4;
 9/5=8,15=1/13;
 11/28=-7,31=1,32=3,42=3/11;
 10/5=6,13=10,31=1/2;
 6/7=2,8=2,9=2,10=2,22=-1,31=1/1;
 99/5=1,6=1100,9=1/99;
 ------------------
 cl2co-wavefunction
 ------------------
 Symbolic Z-matrix:
 Charge =  0 Multiplicity = 1
 O                     0.        0.        0.6934 
 C                     0.        0.       -0.49469 
 Cl                    0.       -1.44687  -1.46981 
 Cl                    0.        1.44687  -1.46981 
 
                          Input orientation:                          
 ---------------------------------------------------------------------
 Center     Atomic      Atomic             Coordinates (Angstroms)
 Number     Number       Type             X           Y           Z
 ---------------------------------------------------------------------
      1          8           0        0.000000    0.000000    0.693397
      2          6           0        0.000000    0.000000   -0.494687
      3         17           0        0.000000   -1.446870   -1.469805
      4         17           0        0.000000    1.446870   -1.469805
 ---------------------------------------------------------------------
                    Distance matrix (angstroms):
                    1          2          3          4
     1  O    0.000000
     2  C    1.188084   0.000000
     3  Cl   2.602475   1.744789   0.000000
     4  Cl   2.602475   1.744789   2.893740   0.000000
 Symmetry turned off by external request.
 Stoichiometry    CCl2O
 Framework group  C2V[C2(CO),SGV(Cl2)]
 Deg. of freedom     3
 Full point group                 C2V     NOp   4
 Rotational constants (GHZ):      7.8515776      3.4518093      2.3977016
 Standard basis: Aug-CC-pVTZ (5D, 7F)
 Integral buffers will be    131072 words long.
 Raffenetti 1 integral format.
 Two-electron integral symmetry is turned off.
   192 basis functions,   372 primitive gaussians,   228 cartesian basis functions
    24 alpha electrons       24 beta electrons
       nuclear repulsion energy       191.4073292433 Hartrees.
 NAtoms=    4 NActive=    4 NUniq=    4 SFac= 1.00D+00 NAtFMM=   50 NAOKFM=F Big=F
 One-electron integrals computed using PRISM.
 NBasis=   192 RedAO= T  NBF=   192
 NBsUse=   192 1.00D-06 NBFU=   192
 Harris functional with IExCor=  205 diagonalized for initial guess.
 ExpMin= 3.57D-02 ExpMax= 4.56D+05 ExpMxC= 1.44D+03 IAcc=3 IRadAn=         0 AccDes= 0.00D+00
 HarFok:  IExCor=  205 AccDes= 0.00D+00 IRadAn=         0 IDoV= 1
 ScaDFX=  1.000000  1.000000  1.000000  1.000000
 FoFCou: FMM=F IPFlag=           0 FMFlag=      100000 FMFlg1=           0
         NFxFlg=           0 DoJE=T BraDBF=F KetDBF=T FulRan=T
         Omega=  0.000000  0.000000  1.000000  0.000000  0.000000 ICntrl=     500 IOpCl=  0
         NMat0=    1 NMatS0=    1 NMatT0=    0 NMatD0=    1 NMtDS0=    0 NMtDT0=    0
         I1Cent=           4 NGrid=           0.
 Symmetry not used in FoFCou.
 Requested convergence on RMS density matrix=1.00D-08 within 128 cycles.
 Requested convergence on MAX density matrix=1.00D-06.
 Requested convergence on             energy=1.00D-06.
 No special actions if energy rises.
 Keep R1 ints in memory in canonical form, NReq=346956363.
 SCF Done:  E(RHF) =  -1031.80155472     A.U. after   12 cycles
             Convg  =    0.5104D-08             -V/T =  2.0003
 ExpMin= 3.57D-02 ExpMax= 4.56D+05 ExpMxC= 1.44D+03 IAcc=3 IRadAn=         5 AccDes= 0.00D+00
 HarFok:  IExCor=  205 AccDes= 0.00D+00 IRadAn=         5 IDoV=-2
 ScaDFX=  1.000000  1.000000  1.000000  1.000000
 DSYEVD returned Info=          93 IAlg= 4 N=    46 NDim=    46 NE2=    21472416 trying DSYEV.
 DSYEVD returned Info=          93 IAlg= 4 N=    46 NDim=    46 NE2=    21472416 trying DSYEV.
 Range of M.O.s used for correlation:    13   192
 NBasis=   192 NAE=    24 NBE=    24 NFC=    12 NFV=     0
 NROrb=    180 NOA=    12 NOB=    12 NVA=   168 NVB=   168

 **** Warning!!: The largest alpha MO coefficient is  0.29817830D+02

 Semi-Direct transformation.
 ModeAB=           2 MOrb=            12 LenV=    1072714407
 LASXX=     33405819 LTotXX=    33405819 LenRXX=    33405819
 LTotAB=    33954012 MaxLAS=    56388960 LenRXY=    56388960
 NonZer=    66811638 LenScr=   100987392 LnRSAI=           0
 LnScr1=           0 LExtra=           0 Total=    190782171
 MaxDsk=          -1 SrtSym=           F ITran=            4
 JobTyp=0 Pass  1:  I=   1 to  12.
 (rs|ai) integrals will be sorted in core.
 Spin components of T(2) and E(2):
     alpha-alpha T2 =       0.3540074510D-01 E2=     -0.1019713649D+00
     alpha-beta  T2 =       0.1842725694D+00 E2=     -0.5767255215D+00
     beta-beta   T2 =       0.3540074510D-01 E2=     -0.1019713649D+00
 ANorm=    0.1120300879D+01
 E2 =    -0.7806682512D+00 EUMP2 =    -0.10325822229736D+04
 R2 and R3 integrals will be kept in memory, NReq=   687553722.
 Iterations=  50 Convergence= 0.100D-07
 Iteration Nr.   1
 **********************
 DD1Dir will call FoFMem   1 times, MxPair=       156
 NAB=    78 NAA=     0 NBB=     0.
 MP4(R+Q)=  0.22627428D-01
 E3=       -0.18526892D-01        EUMP3=      -0.10326007499D+04
 E4(DQ)=    0.27170955D-02        UMP4(DQ)=   -0.10325980328D+04
 E4(SDQ)=  -0.64680847D-02        UMP4(SDQ)=  -0.10326072180D+04
 DE(Corr)= -0.77656772     E(Corr)=     -1032.5781224    
 NORM(A)=   0.11217369D+01
 Iteration Nr.   2
 **********************
 DD1Dir will call FoFMem   1 times, MxPair=       156
 NAB=    78 NAA=     0 NBB=     0.
 DE(Corr)= -0.80271685     E(CORR)=     -1032.6042716     Delta=-2.61D-02
 NORM(A)=   0.11312233D+01
 Iteration Nr.   3
 **********************
 DD1Dir will call FoFMem   1 times, MxPair=       156
 NAB=    78 NAA=     0 NBB=     0.
 DE(Corr)= -0.80099047     E(CORR)=     -1032.6025452     Delta= 1.73D-03
 NORM(A)=   0.11339139D+01
 Iteration Nr.   4
 **********************
 DD1Dir will call FoFMem   1 times, MxPair=       156
 NAB=    78 NAA=     0 NBB=     0.
 DE(Corr)= -0.80348557     E(CORR)=     -1032.6050403     Delta=-2.50D-03
 NORM(A)=   0.11349673D+01
 Iteration Nr.   5
 **********************
 DD1Dir will call FoFMem   1 times, MxPair=       156
 NAB=    78 NAA=     0 NBB=     0.
 DE(Corr)= -0.80381698     E(CORR)=     -1032.6053717     Delta=-3.31D-04
 NORM(A)=   0.11353770D+01
 Iteration Nr.   6
 **********************
 DD1Dir will call FoFMem   1 times, MxPair=       156
 NAB=    78 NAA=     0 NBB=     0.
 DE(Corr)= -0.80387006     E(CORR)=     -1032.6054248     Delta=-5.31D-05
 NORM(A)=   0.11354527D+01
 Iteration Nr.   7
 **********************
 DD1Dir will call FoFMem   1 times, MxPair=       156
 NAB=    78 NAA=     0 NBB=     0.
 DE(Corr)= -0.80387969     E(CORR)=     -1032.6054344     Delta=-9.63D-06
 NORM(A)=   0.11354533D+01
 Iteration Nr.   8
 **********************
 DD1Dir will call FoFMem   1 times, MxPair=       156
 NAB=    78 NAA=     0 NBB=     0.
 DE(Corr)= -0.80387963     E(CORR)=     -1032.6054344     Delta= 5.60D-08
 NORM(A)=   0.11354616D+01
 Iteration Nr.   9
 **********************
 DD1Dir will call FoFMem   1 times, MxPair=       156
 NAB=    78 NAA=     0 NBB=     0.
 DE(Corr)= -0.80387799     E(CORR)=     -1032.6054327     Delta= 1.64D-06
 NORM(A)=   0.11354609D+01
 Iteration Nr.  10
 **********************
 DD1Dir will call FoFMem   1 times, MxPair=       156
 NAB=    78 NAA=     0 NBB=     0.
 DE(Corr)= -0.80387936     E(CORR)=     -1032.6054341     Delta=-1.37D-06
 NORM(A)=   0.11354626D+01
 Iteration Nr.  11
 **********************
 DD1Dir will call FoFMem   1 times, MxPair=       156
 NAB=    78 NAA=     0 NBB=     0.
 DE(Corr)= -0.80388011     E(CORR)=     -1032.6054348     Delta=-7.44D-07
 NORM(A)=   0.11354638D+01
 Iteration Nr.  12
 **********************
 DD1Dir will call FoFMem   1 times, MxPair=       156
 NAB=    78 NAA=     0 NBB=     0.
 DE(Corr)= -0.80388041     E(CORR)=     -1032.6054351     Delta=-3.00D-07
 NORM(A)=   0.11354645D+01
 Iteration Nr.  13
 **********************
 DD1Dir will call FoFMem   1 times, MxPair=       156
 NAB=    78 NAA=     0 NBB=     0.
 DE(Corr)= -0.80388074     E(CORR)=     -1032.6054355     Delta=-3.36D-07
 NORM(A)=   0.11354650D+01
 Iteration Nr.  14
 **********************
 DD1Dir will call FoFMem   1 times, MxPair=       156
 NAB=    78 NAA=     0 NBB=     0.
 DE(Corr)= -0.80388081     E(CORR)=     -1032.6054355     Delta=-7.03D-08
 NORM(A)=   0.11354652D+01
 Iteration Nr.  15
 **********************
 DD1Dir will call FoFMem   1 times, MxPair=       156
 NAB=    78 NAA=     0 NBB=     0.
 DE(Corr)= -0.80388086     E(CORR)=     -1032.6054356     Delta=-5.29D-08
 NORM(A)=   0.11354653D+01
 Iteration Nr.  16
 **********************
 DD1Dir will call FoFMem   1 times, MxPair=       156
 NAB=    78 NAA=     0 NBB=     0.
 DE(Corr)= -0.80388088     E(CORR)=     -1032.6054356     Delta=-1.55D-08
 NORM(A)=   0.11354653D+01
 Iteration Nr.  17
 **********************
 DD1Dir will call FoFMem   1 times, MxPair=       156
 NAB=    78 NAA=     0 NBB=     0.
 DE(Corr)= -0.80388088     E(CORR)=     -1032.6054356     Delta= 1.59D-10
 NORM(A)=   0.11354653D+01
 Iteration Nr.  18
 **********************
 DD1Dir will call FoFMem   1 times, MxPair=       156
 NAB=    78 NAA=     0 NBB=     0.
 DE(Corr)= -0.80388088     E(CORR)=     -1032.6054356     Delta=-3.08D-10
 NORM(A)=   0.11354653D+01
 Iteration Nr.  19
 **********************
 DD1Dir will call FoFMem   1 times, MxPair=       156
 NAB=    78 NAA=     0 NBB=     0.
 DE(Corr)= -0.80388088     E(CORR)=     -1032.6054356     Delta= 3.02D-10
 NORM(A)=   0.11354653D+01
 Largest amplitude= 3.68D-02

 Z-AMPLITUDE ITERATIONS

 Iteration Nr.   1
 **********************
 DD1Dir will call FoFMem   1 times, MxPair=       156
 NAB=    78 NAA=     0 NBB=     0.
 DE(Z)  -0.77565387D+00          E(Z)=    -0.10325772086D+04
 NORM(A)=   0.11354586D+01
 Iteration Nr.   2
 **********************
 DD1Dir will call FoFMem   1 times, MxPair=       156
 NAB=    78 NAA=     0 NBB=     0.
 DE(Z)  -0.77565366D+00          E(Z)=    -0.10325772084D+04
 NORM(A)=   0.11354681D+01
 Iteration Nr.   3
 **********************
 DD1Dir will call FoFMem   1 times, MxPair=       156
 NAB=    78 NAA=     0 NBB=     0.
 DE(Z)  -0.77565395D+00          E(Z)=    -0.10325772087D+04
 NORM(A)=   0.11354627D+01
 Iteration Nr.   4
 **********************
 DD1Dir will call FoFMem   1 times, MxPair=       156
 NAB=    78 NAA=     0 NBB=     0.
 DE(Z)  -0.77565379D+00          E(Z)=    -0.10325772085D+04
 NORM(A)=   0.11354608D+01
 Iteration Nr.   5
 **********************
 DD1Dir will call FoFMem   1 times, MxPair=       156
 NAB=    78 NAA=     0 NBB=     0.
 DE(Z)  -0.77565373D+00          E(Z)=    -0.10325772085D+04
 NORM(A)=   0.11257174D+01
 Iteration Nr.   6
 **********************
 DD1Dir will call FoFMem   1 times, MxPair=       156
 NAB=    78 NAA=     0 NBB=     0.
 DE(Z)  -0.77534977D+00          E(Z)=    -0.10325769045D+04
 NORM(A)=   0.11257093D+01
 Iteration Nr.   7
 **********************
 DD1Dir will call FoFMem   1 times, MxPair=       156
 NAB=    78 NAA=     0 NBB=     0.
 DE(Z)  -0.77534964D+00          E(Z)=    -0.10325769044D+04
 NORM(A)=   0.11257088D+01
 Iteration Nr.   8
 **********************
 DD1Dir will call FoFMem   1 times, MxPair=       156
 NAB=    78 NAA=     0 NBB=     0.
 DE(Z)  -0.77534910D+00          E(Z)=    -0.10325769038D+04
 NORM(A)=   0.11257087D+01
 Iteration Nr.   9
 **********************
 DD1Dir will call FoFMem   1 times, MxPair=       156
 NAB=    78 NAA=     0 NBB=     0.
 DE(Z)  -0.77534950D+00          E(Z)=    -0.10325769042D+04
 NORM(A)=   0.11257096D+01
 Iteration Nr.  10
 **********************
 DD1Dir will call FoFMem   1 times, MxPair=       156
 NAB=    78 NAA=     0 NBB=     0.
 DE(Z)  -0.77534972D+00          E(Z)=    -0.10325769044D+04
 NORM(A)=   0.11257098D+01
 Iteration Nr.  11
 **********************
 DD1Dir will call FoFMem   1 times, MxPair=       156
 NAB=    78 NAA=     0 NBB=     0.
 DE(Z)  -0.77534961D+00          E(Z)=    -0.10325769043D+04
 NORM(A)=   0.11257099D+01
 Iteration Nr.  12
 **********************
 DD1Dir will call FoFMem   1 times, MxPair=       156
 NAB=    78 NAA=     0 NBB=     0.
 DE(Z)  -0.77534970D+00          E(Z)=    -0.10325769044D+04
 NORM(A)=   0.11257100D+01
 Iteration Nr.  13
 **********************
 DD1Dir will call FoFMem   1 times, MxPair=       156
 NAB=    78 NAA=     0 NBB=     0.
 DE(Z)  -0.77534967D+00          E(Z)=    -0.10325769044D+04
 NORM(A)=   0.11257100D+01
 Iteration Nr.  14
 **********************
 DD1Dir will call FoFMem   1 times, MxPair=       156
 NAB=    78 NAA=     0 NBB=     0.
 DE(Z)  -0.77534968D+00          E(Z)=    -0.10325769044D+04
 NORM(A)=   0.11257100D+01
 Iteration Nr.  15
 **********************
 DD1Dir will call FoFMem   1 times, MxPair=       156
 NAB=    78 NAA=     0 NBB=     0.
 DE(Z)  -0.77534968D+00          E(Z)=    -0.10325769044D+04
 NORM(A)=   0.11257100D+01
 Discarding MO integrals.
          Differentiating once with respect to electric field.
                with respect to dipole field.
          Electric field/nuclear overlap derivatives assumed to be zero.
          Keep R1 ints in memory in canonical form, NReq=342715808.
          There are     1 degrees of freedom in the 1st order CPHF.  IDoFFX=0.
 LinEq1:  Iter=  0 NonCon=     1 RMS=2.36D-03 Max=6.04D-02
 AX will form     1 AO Fock derivatives at one time.
 LinEq1:  Iter=  1 NonCon=     1 RMS=8.36D-04 Max=1.77D-02
 LinEq1:  Iter=  2 NonCon=     1 RMS=3.14D-04 Max=4.75D-03
 LinEq1:  Iter=  3 NonCon=     1 RMS=1.30D-04 Max=3.43D-03
 LinEq1:  Iter=  4 NonCon=     1 RMS=5.25D-05 Max=1.24D-03
 LinEq1:  Iter=  5 NonCon=     1 RMS=1.66D-05 Max=3.32D-04
 LinEq1:  Iter=  6 NonCon=     1 RMS=4.26D-06 Max=6.81D-05
 LinEq1:  Iter=  7 NonCon=     1 RMS=1.02D-06 Max=1.21D-05
 LinEq1:  Iter=  8 NonCon=     1 RMS=2.18D-07 Max=3.20D-06
 LinEq1:  Iter=  9 NonCon=     1 RMS=4.95D-08 Max=7.50D-07
 LinEq1:  Iter= 10 NonCon=     1 RMS=1.26D-08 Max=2.35D-07
 LinEq1:  Iter= 11 NonCon=     1 RMS=2.64D-09 Max=3.99D-08
 LinEq1:  Iter= 12 NonCon=     1 RMS=4.87D-10 Max=1.22D-08
 LinEq1:  Iter= 13 NonCon=     1 RMS=8.22D-11 Max=1.40D-09
 LinEq1:  Iter= 14 NonCon=     0 RMS=1.17D-11 Max=1.41D-10
 Linear equations converged to 1.000D-10 1.000D-09 after    14 iterations.
 End of Minotr Frequency-dependent properties file   721 does not exist.
 End of Minotr Frequency-dependent properties file   722 does not exist.

 **********************************************************************

            Population analysis using the QCI/CC density.

 **********************************************************************

     Natural Orbital Coefficients:
                           1         2         3         4         5
     Eigenvalues --     2.00004   2.00004   2.00003   2.00003   2.00003
   1 1   O  1S          0.00000   0.01052   0.00000   0.00000   0.00000
   2        2S          0.00000  -0.00024   0.00000   0.00000   0.00000
   3        3S          0.00000   0.00049   0.00000   0.00000   0.00000
   4        4S          0.00000   0.00085   0.00000   0.00000   0.00000
   5        5S          0.00000   0.00294   0.00000   0.00000   0.00000
   6        6PX         0.00000   0.00000   0.00000  -0.00107   0.00000
   7        6PY        -0.00018   0.00000   0.00000   0.00000   0.00026
   8        6PZ         0.00000   0.00033   0.00000   0.00000   0.00000
   9        7PX         0.00000   0.00000   0.00000  -0.00158   0.00000
  10        7PY        -0.00100   0.00000   0.00000   0.00000   0.00048
  11        7PZ         0.00000   0.00063   0.00000   0.00000   0.00000
  12        8PX         0.00000   0.00000   0.00000  -0.00149   0.00000
  13        8PY        -0.00365   0.00000   0.00000   0.00000   0.00152
  14        8PZ         0.00000   0.00239   0.00000   0.00000   0.00000
  15        9PX         0.00000   0.00000   0.00000   0.00033   0.00000
  16        9PY        -0.00047   0.00000   0.00000   0.00000   0.00115
  17        9PZ         0.00000   0.00024   0.00000   0.00000   0.00000
  18       10D 0        0.00000   0.00001   0.00000   0.00000   0.00000
  19       10D+1        0.00000   0.00000   0.00000  -0.00003   0.00000
  20       10D-1       -0.00002   0.00000   0.00000   0.00000   0.00003
  21       10D+2        0.00000   0.00003   0.00000   0.00000   0.00000
  22       10D-2        0.00000   0.00000   0.00001   0.00000   0.00000
  23       11D 0        0.00000  -0.00023   0.00000   0.00000   0.00000
  24       11D+1        0.00000   0.00000   0.00000   0.00013   0.00000
  25       11D-1       -0.00003   0.00000   0.00000   0.00000  -0.00009
  26       11D+2        0.00000  -0.00024   0.00000   0.00000   0.00000
  27       11D-2        0.00000   0.00000   0.00003   0.00000   0.00000
  28       12D 0        0.00000  -0.00073   0.00000   0.00000   0.00000
  29       12D+1        0.00000   0.00000   0.00000   0.00014   0.00000
  30       12D-1        0.00061   0.00000   0.00000   0.00000  -0.00027
  31       12D+2        0.00000   0.00019   0.00000   0.00000   0.00000
  32       12D-2        0.00000   0.00000  -0.00081   0.00000   0.00000
  33       13F 0        0.00000   0.00001   0.00000   0.00000   0.00000
  34       13F+1        0.00000   0.00000   0.00000   0.00002   0.00000
  35       13F-1        0.00003   0.00000   0.00000   0.00000  -0.00002
  36       13F+2        0.00000   0.00000   0.00000   0.00000   0.00000
  37       13F-2        0.00000   0.00000  -0.00006   0.00000   0.00000
  38       13F+3        0.00000   0.00000   0.00000   0.00004   0.00000
  39       13F-3        0.00004   0.00000   0.00000   0.00000   0.00000
  40       14F 0        0.00000   0.00012   0.00000   0.00000   0.00000
  41       14F+1        0.00000   0.00000   0.00000  -0.00008   0.00000
  42       14F-1        0.00029   0.00000   0.00000   0.00000   0.00004
  43       14F+2        0.00000   0.00014   0.00000   0.00000   0.00000
  44       14F-2        0.00000   0.00000   0.00020   0.00000   0.00000
  45       14F+3        0.00000   0.00000   0.00000  -0.00017   0.00000
  46       14F-3       -0.00019   0.00000   0.00000   0.00000   0.00004
  47 2   C  1S          0.00000  -0.01167   0.00000   0.00000   0.00000
  48        2S          0.00000   0.00142   0.00000   0.00000   0.00000
  49        3S          0.00000  -0.00017   0.00000   0.00000   0.00000
  50        4S          0.00000   0.00000   0.00000   0.00000   0.00000
  51        5S          0.00000   0.00127   0.00000   0.00000   0.00000
  52        6PX         0.00000   0.00000   0.00000   0.00170   0.00000
  53        6PY         0.00050   0.00000   0.00000   0.00000  -0.00071
  54        6PZ         0.00000   0.00046   0.00000   0.00000   0.00000
  55        7PX         0.00000   0.00000   0.00000   0.00197   0.00000
  56        7PY         0.00037   0.00000   0.00000   0.00000   0.00016
  57        7PZ         0.00000   0.00195   0.00000   0.00000   0.00000
  58        8PX         0.00000   0.00000   0.00000   0.00086   0.00000
  59        8PY         0.00073   0.00000   0.00000   0.00000   0.00249
  60        8PZ         0.00000  -0.00201   0.00000   0.00000   0.00000
  61        9PX         0.00000   0.00000   0.00000  -0.00071   0.00000
  62        9PY        -0.00039   0.00000   0.00000   0.00000  -0.00111
  63        9PZ         0.00000  -0.00099   0.00000   0.00000   0.00000
  64       10D 0        0.00000  -0.00032   0.00000   0.00000   0.00000
  65       10D+1        0.00000   0.00000   0.00000  -0.00031   0.00000
  66       10D-1        0.00006   0.00000   0.00000   0.00000  -0.00002
  67       10D+2        0.00000  -0.00022   0.00000   0.00000   0.00000
  68       10D-2        0.00000   0.00000   0.00036   0.00000   0.00000
  69       11D 0        0.00000   0.00039   0.00000   0.00000   0.00000
  70       11D+1        0.00000   0.00000   0.00000   0.00023   0.00000
  71       11D-1        0.00018   0.00000   0.00000   0.00000  -0.00152
  72       11D+2        0.00000   0.00064   0.00000   0.00000   0.00000
  73       11D-2        0.00000   0.00000  -0.00013   0.00000   0.00000
  74       12D 0        0.00000  -0.00395   0.00000   0.00000   0.00000
  75       12D+1        0.00000   0.00000   0.00000  -0.00082   0.00000
  76       12D-1        0.00108   0.00000   0.00000   0.00000  -0.00225
  77       12D+2        0.00000  -0.00229   0.00000   0.00000   0.00000
  78       12D-2        0.00000   0.00000   0.00141   0.00000   0.00000
  79       13F 0        0.00000   0.00017   0.00000   0.00000   0.00000
  80       13F+1        0.00000   0.00000   0.00000   0.00006   0.00000
  81       13F-1       -0.00041   0.00000   0.00000   0.00000   0.00002
  82       13F+2        0.00000   0.00002   0.00000   0.00000   0.00000
  83       13F-2        0.00000   0.00000  -0.00011   0.00000   0.00000
  84       13F+3        0.00000   0.00000   0.00000  -0.00009   0.00000
  85       13F-3       -0.00009   0.00000   0.00000   0.00000   0.00001
  86       14F 0        0.00000  -0.00090   0.00000   0.00000   0.00000
  87       14F+1        0.00000   0.00000   0.00000   0.00010   0.00000
  88       14F-1        0.00401   0.00000   0.00000   0.00000  -0.00043
  89       14F+2        0.00000  -0.00005   0.00000   0.00000   0.00000
  90       14F-2        0.00000   0.00000   0.00119   0.00000   0.00000
  91       14F+3        0.00000   0.00000   0.00000   0.00061   0.00000
  92       14F-3        0.00118   0.00000   0.00000   0.00000  -0.00041
  93 3   Cl 1S         -0.00058  -0.00229   0.00000   0.00000  -0.17382
  94        2S          0.00231   0.00812   0.00000   0.00000   0.58675
  95        3S          0.00039   0.00015   0.00000   0.00000  -0.01737
  96        4S          0.00015   0.00044   0.00000   0.00000   0.04549
  97        5S         -0.00052  -0.00107   0.00000   0.00000  -0.00100
  98        6S         -0.00065  -0.00197   0.00000   0.00000  -0.00161
  99        7PX         0.00000   0.00000   0.69251  -0.69202   0.00000
 100        7PY        -0.39445   0.34698   0.00000   0.00000  -0.30742
 101        7PZ         0.56981  -0.59954   0.00000   0.00000  -0.21491
 102        8PX         0.00000   0.00000  -0.01495   0.01338   0.00000
 103        8PY         0.00993  -0.00735   0.00000   0.00000   0.00597
 104        8PZ        -0.01390   0.01386   0.00000   0.00000   0.00434
 105        9PX         0.00000   0.00000   0.03665  -0.03712   0.00000
 106        9PY        -0.02050   0.01807   0.00000   0.00000  -0.01748
 107        9PZ         0.02976  -0.03143   0.00000   0.00000  -0.01224
 108       10PX         0.00000   0.00000  -0.00381   0.00331   0.00000
 109       10PY         0.00311  -0.00151   0.00000   0.00000   0.00168
 110       10PZ        -0.00497   0.00196   0.00000   0.00000   0.00132
 111       11PX         0.00000   0.00000  -0.00056   0.00080   0.00000
 112       11PY         0.00040  -0.00043   0.00000   0.00000   0.00015
 113       11PZ        -0.00063   0.00026   0.00000   0.00000  -0.00009
 114       12D 0        0.00043  -0.00025   0.00000   0.00000  -0.00005
 115       12D+1        0.00000   0.00000   0.00017  -0.00015   0.00000
 116       12D-1        0.00022  -0.00013   0.00000   0.00000   0.00013
 117       12D+2        0.00024  -0.00013   0.00000   0.00000  -0.00005
 118       12D-2        0.00000   0.00000   0.00029  -0.00015   0.00000
 119       13D 0       -0.00192   0.00106   0.00000   0.00000   0.00023
 120       13D+1        0.00000   0.00000  -0.00072   0.00060   0.00000
 121       13D-1       -0.00079   0.00102   0.00000   0.00000   0.00064
 122       13D+2       -0.00085   0.00064   0.00000   0.00000  -0.00039
 123       13D-2        0.00000   0.00000  -0.00107   0.00097   0.00000
 124       14D 0       -0.00006  -0.00076   0.00000   0.00000  -0.00005
 125       14D+1        0.00000   0.00000   0.00043   0.00005   0.00000
 126       14D-1       -0.00005  -0.00020   0.00000   0.00000   0.00028
 127       14D+2        0.00007  -0.00045   0.00000   0.00000   0.00014
 128       14D-2        0.00000   0.00000   0.00025  -0.00010   0.00000
 129       15F 0        0.00000   0.00001   0.00000   0.00000   0.00002
 130       15F+1        0.00000   0.00000  -0.00007  -0.00004   0.00000
 131       15F-1        0.00001   0.00003   0.00000   0.00000   0.00002
 132       15F+2        0.00002   0.00002   0.00000   0.00000  -0.00001
 133       15F-2        0.00000   0.00000   0.00000  -0.00001   0.00000
 134       15F+3        0.00000   0.00000  -0.00001  -0.00001   0.00000
 135       15F-3        0.00002   0.00004   0.00000   0.00000  -0.00001
 136       16F 0       -0.00039  -0.00012   0.00000   0.00000  -0.00014
 137       16F+1        0.00000   0.00000   0.00014   0.00015   0.00000
 138       16F-1       -0.00090   0.00050   0.00000   0.00000   0.00016
 139       16F+2       -0.00006  -0.00029   0.00000   0.00000  -0.00022
 140       16F-2        0.00000   0.00000  -0.00036   0.00032   0.00000
 141       16F+3        0.00000   0.00000   0.00032  -0.00028   0.00000
 142       16F-3       -0.00019   0.00018   0.00000   0.00000  -0.00006
 143 4   Cl 1S          0.00058  -0.00229   0.00000   0.00000   0.17382
 144        2S         -0.00231   0.00812   0.00000   0.00000  -0.58675
 145        3S         -0.00039   0.00015   0.00000   0.00000   0.01737
 146        4S         -0.00015   0.00044   0.00000   0.00000  -0.04549
 147        5S          0.00052  -0.00107   0.00000   0.00000   0.00100
 148        6S          0.00065  -0.00197   0.00000   0.00000   0.00161
 149        7PX         0.00000   0.00000  -0.69251  -0.69202   0.00000
 150        7PY        -0.39445  -0.34698   0.00000   0.00000  -0.30742
 151        7PZ        -0.56981  -0.59954   0.00000   0.00000   0.21491
 152        8PX         0.00000   0.00000   0.01495   0.01338   0.00000
 153        8PY         0.00993   0.00735   0.00000   0.00000   0.00597
 154        8PZ         0.01390   0.01386   0.00000   0.00000  -0.00434
 155        9PX         0.00000   0.00000  -0.03665  -0.03712   0.00000
 156        9PY        -0.02050  -0.01807   0.00000   0.00000  -0.01748
 157        9PZ        -0.02976  -0.03143   0.00000   0.00000   0.01224
 158       10PX         0.00000   0.00000   0.00381   0.00331   0.00000
 159       10PY         0.00311   0.00151   0.00000   0.00000   0.00168
 160       10PZ         0.00497   0.00196   0.00000   0.00000  -0.00132
 161       11PX         0.00000   0.00000   0.00056   0.00080   0.00000
 162       11PY         0.00040   0.00043   0.00000   0.00000   0.00015
 163       11PZ         0.00063   0.00026   0.00000   0.00000   0.00009
 164       12D 0       -0.00043  -0.00025   0.00000   0.00000   0.00005
 165       12D+1        0.00000   0.00000  -0.00017  -0.00015   0.00000
 166       12D-1        0.00022   0.00013   0.00000   0.00000   0.00013
 167       12D+2       -0.00024  -0.00013   0.00000   0.00000   0.00005
 168       12D-2        0.00000   0.00000   0.00029   0.00015   0.00000
 169       13D 0        0.00192   0.00106   0.00000   0.00000  -0.00023
 170       13D+1        0.00000   0.00000   0.00072   0.00060   0.00000
 171       13D-1       -0.00079  -0.00102   0.00000   0.00000   0.00064
 172       13D+2        0.00085   0.00064   0.00000   0.00000   0.00039
 173       13D-2        0.00000   0.00000  -0.00107  -0.00097   0.00000
 174       14D 0        0.00006  -0.00076   0.00000   0.00000   0.00005
 175       14D+1        0.00000   0.00000  -0.00043   0.00005   0.00000
 176       14D-1       -0.00005   0.00020   0.00000   0.00000   0.00028
 177       14D+2       -0.00007  -0.00045   0.00000   0.00000  -0.00014
 178       14D-2        0.00000   0.00000   0.00025   0.00010   0.00000
 179       15F 0        0.00000   0.00001   0.00000   0.00000  -0.00002
 180       15F+1        0.00000   0.00000   0.00007  -0.00004   0.00000
 181       15F-1        0.00001  -0.00003   0.00000   0.00000   0.00002
 182       15F+2       -0.00002   0.00002   0.00000   0.00000   0.00001
 183       15F-2        0.00000   0.00000   0.00000   0.00001   0.00000
 184       15F+3        0.00000   0.00000   0.00001  -0.00001   0.00000
 185       15F-3        0.00002  -0.00004   0.00000   0.00000  -0.00001
 186       16F 0        0.00039  -0.00012   0.00000   0.00000   0.00014
 187       16F+1        0.00000   0.00000  -0.00014   0.00015   0.00000
 188       16F-1       -0.00090  -0.00050   0.00000   0.00000   0.00016
 189       16F+2        0.00006  -0.00029   0.00000   0.00000   0.00022
 190       16F-2        0.00000   0.00000  -0.00036  -0.00032   0.00000
 191       16F+3        0.00000   0.00000  -0.00032  -0.00028   0.00000
 192       16F-3       -0.00019  -0.00018   0.00000   0.00000  -0.00006
                           6         7         8         9        10
     Eigenvalues --     2.00003   2.00001   2.00001   2.00001   2.00000
   1 1   O  1S          0.01387   0.00000  -0.26178   0.88389   0.33071
   2        2S         -0.00043   0.00000   0.00575  -0.01632  -0.00538
   3        3S          0.00054   0.00000  -0.01092   0.03754   0.01448
   4        4S          0.00065   0.00000   0.00054  -0.00346  -0.00111
   5        5S          0.00031   0.00000  -0.00177  -0.00110  -0.00166
   6        6PX         0.00000   0.00000   0.00000   0.00000   0.00000
   7        6PY         0.00000  -0.00079   0.00000   0.00000   0.00000
   8        6PZ        -0.00008   0.00000   0.00175  -0.00370   0.00046
   9        7PX         0.00000   0.00000   0.00000   0.00000   0.00000
  10        7PY         0.00000  -0.00134   0.00000   0.00000   0.00000
  11        7PZ        -0.00020   0.00000   0.00124  -0.00067   0.00311
  12        8PX         0.00000   0.00000   0.00000   0.00000   0.00000
  13        8PY         0.00000  -0.00409   0.00000   0.00000   0.00000
  14        8PZ        -0.00078   0.00000   0.00208  -0.00249   0.00279
  15        9PX         0.00000   0.00000   0.00000   0.00000   0.00000
  16        9PY         0.00000  -0.00152   0.00000   0.00000   0.00000
  17        9PZ         0.00016   0.00000   0.00029  -0.00030   0.00085
  18       10D 0        0.00002   0.00000  -0.00011   0.00020   0.00001
  19       10D+1        0.00000   0.00000   0.00000   0.00000   0.00000
  20       10D-1        0.00000  -0.00004   0.00000   0.00000   0.00000
  21       10D+2        0.00000   0.00000   0.00000  -0.00007   0.00000
  22       10D-2        0.00000   0.00000   0.00000   0.00000   0.00000
  23       11D 0        0.00008   0.00000  -0.00010  -0.00039  -0.00106
  24       11D+1        0.00000   0.00000   0.00000   0.00000   0.00000
  25       11D-1        0.00000   0.00012   0.00000   0.00000   0.00000
  26       11D+2       -0.00001   0.00000   0.00017  -0.00004  -0.00011
  27       11D-2        0.00000   0.00000   0.00000   0.00000   0.00000
  28       12D 0        0.00008   0.00000  -0.00006   0.00072  -0.00095
  29       12D+1        0.00000   0.00000   0.00000   0.00000   0.00000
  30       12D-1        0.00000   0.00103   0.00000   0.00000   0.00000
  31       12D+2       -0.00022   0.00000   0.00062   0.00015  -0.00003
  32       12D-2        0.00000   0.00000   0.00000   0.00000   0.00000
  33       13F 0        0.00001   0.00000  -0.00008   0.00006  -0.00010
  34       13F+1        0.00000   0.00000   0.00000   0.00000   0.00000
  35       13F-1        0.00000   0.00006   0.00000   0.00000   0.00000
  36       13F+2       -0.00001   0.00000   0.00002  -0.00002  -0.00002
  37       13F-2        0.00000   0.00000   0.00000   0.00000   0.00000
  38       13F+3        0.00000   0.00000   0.00000   0.00000   0.00000
  39       13F-3        0.00000   0.00000   0.00000   0.00000   0.00000
  40       14F 0        0.00006   0.00000  -0.00013  -0.00007   0.00052
  41       14F+1        0.00000   0.00000   0.00000   0.00000   0.00000
  42       14F-1        0.00000  -0.00005   0.00000   0.00000   0.00000
  43       14F+2        0.00009   0.00000  -0.00029  -0.00009   0.00018
  44       14F-2        0.00000   0.00000   0.00000   0.00000   0.00000
  45       14F+3        0.00000   0.00000   0.00000   0.00000   0.00000
  46       14F-3        0.00000  -0.00007   0.00000   0.00000   0.00000
  47 2   C  1S         -0.14552   0.00000   0.61671  -0.09313   0.74285
  48        2S          0.00291   0.00000  -0.01068   0.00080  -0.00665
  49        3S         -0.00532   0.00000   0.02402  -0.00462   0.03214
  50        4S         -0.00629   0.00000   0.00571   0.00583  -0.01225
  51        5S         -0.00040   0.00000   0.00249   0.00153  -0.00229
  52        6PX         0.00000   0.00000   0.00000   0.00000   0.00000
  53        6PY         0.00000   0.00246   0.00000   0.00000   0.00000
  54        6PZ        -0.00037   0.00000   0.00062   0.00092  -0.00197
  55        7PX         0.00000   0.00000   0.00000   0.00000   0.00000
  56        7PY         0.00000  -0.00036   0.00000   0.00000   0.00000
  57        7PZ        -0.00070   0.00000   0.00133   0.00099   0.00503
  58        8PX         0.00000   0.00000   0.00000   0.00000   0.00000
  59        8PY         0.00000  -0.00016   0.00000   0.00000   0.00000
  60        8PZ         0.00244   0.00000  -0.00177  -0.00102   0.00416
  61        9PX         0.00000   0.00000   0.00000   0.00000   0.00000
  62        9PY         0.00000   0.00140   0.00000   0.00000   0.00000
  63        9PZ        -0.00028   0.00000  -0.00012   0.00017   0.00018
  64       10D 0       -0.00007   0.00000   0.00024   0.00010   0.00070
  65       10D+1        0.00000   0.00000   0.00000   0.00000   0.00000
  66       10D-1        0.00000  -0.00011   0.00000   0.00000   0.00000
  67       10D+2        0.00007   0.00000  -0.00012   0.00002  -0.00016
  68       10D-2        0.00000   0.00000   0.00000   0.00000   0.00000
  69       11D 0       -0.00023   0.00000  -0.00002   0.00100   0.00103
  70       11D+1        0.00000   0.00000   0.00000   0.00000   0.00000
  71       11D-1        0.00000   0.00273   0.00000   0.00000   0.00000
  72       11D+2        0.00090   0.00000  -0.00055  -0.00107   0.00329
  73       11D-2        0.00000   0.00000   0.00000   0.00000   0.00000
  74       12D 0       -0.00012   0.00000   0.00043  -0.00003  -0.00066
  75       12D+1        0.00000   0.00000   0.00000   0.00000   0.00000
  76       12D-1        0.00000   0.00260   0.00000   0.00000   0.00000
  77       12D+2        0.00077   0.00000  -0.00106  -0.00084   0.00114
  78       12D-2        0.00000   0.00000   0.00000   0.00000   0.00000
  79       13F 0       -0.00015   0.00000   0.00028  -0.00010   0.00039
  80       13F+1        0.00000   0.00000   0.00000   0.00000   0.00000
  81       13F-1        0.00000  -0.00007   0.00000   0.00000   0.00000
  82       13F+2       -0.00002   0.00000  -0.00010  -0.00007  -0.00008
  83       13F-2        0.00000   0.00000   0.00000   0.00000   0.00000
  84       13F+3        0.00000   0.00000   0.00000   0.00000   0.00000
  85       13F-3        0.00000  -0.00003   0.00000   0.00000   0.00000
  86       14F 0        0.00022   0.00000  -0.00109   0.00087  -0.00092
  87       14F+1        0.00000   0.00000   0.00000   0.00000   0.00000
  88       14F-1        0.00000   0.00154   0.00000   0.00000   0.00000
  89       14F+2       -0.00007   0.00000  -0.00060   0.00035  -0.00098
  90       14F-2        0.00000   0.00000   0.00000   0.00000   0.00000
  91       14F+3        0.00000   0.00000   0.00000   0.00000   0.00000
  92       14F-3        0.00000   0.00079   0.00000   0.00000   0.00000
  93 3   Cl 1S         -0.17734  -0.11115  -0.09110  -0.03777   0.03627
  94        2S          0.59826   0.37707   0.31090   0.12883  -0.12378
  95        3S         -0.01784  -0.00660  -0.00468  -0.00159   0.00082
  96        4S          0.04655   0.03138   0.02535   0.01084  -0.01109
  97        5S         -0.00189  -0.00640  -0.00430  -0.00349   0.00811
  98        6S         -0.00022   0.00280  -0.00089  -0.00077   0.00225
  99        7PX         0.00000   0.00000   0.00000   0.00000   0.00000
 100        7PY        -0.29936   0.47638   0.34698   0.22001  -0.31166
 101        7PZ        -0.16400   0.32833   0.19655   0.13766  -0.18618
 102        8PX         0.00000   0.00000   0.00000   0.00000   0.00000
 103        8PY         0.00527  -0.00841  -0.00514  -0.00333   0.00519
 104        8PZ         0.00287  -0.00624  -0.00295  -0.00214   0.00365
 105        9PX         0.00000   0.00000   0.00000   0.00000   0.00000
 106        9PY        -0.01703   0.02907   0.02114   0.01369  -0.01998
 107        9PZ        -0.00938   0.02020   0.01200   0.00857  -0.01209
 108       10PX         0.00000   0.00000   0.00000   0.00000   0.00000
 109       10PY         0.00224  -0.00005  -0.00107  -0.00094   0.00308
 110       10PZ         0.00119  -0.00051  -0.00041  -0.00094   0.00218
 111       11PX         0.00000   0.00000   0.00000   0.00000   0.00000
 112       11PY         0.00003   0.00010  -0.00006  -0.00005   0.00020
 113       11PZ         0.00012   0.00026  -0.00004  -0.00016   0.00018
 114       12D 0       -0.00005   0.00001   0.00000   0.00002   0.00000
 115       12D+1        0.00000   0.00000   0.00000   0.00000   0.00000
 116       12D-1        0.00017   0.00042   0.00025   0.00024  -0.00035
 117       12D+2       -0.00009  -0.00032  -0.00023  -0.00014   0.00022
 118       12D-2        0.00000   0.00000   0.00000   0.00000   0.00000
 119       13D 0       -0.00007  -0.00047   0.00011   0.00009   0.00006
 120       13D+1        0.00000   0.00000   0.00000   0.00000   0.00000
 121       13D-1        0.00038  -0.00224  -0.00088  -0.00088   0.00212
 122       13D+2       -0.00047   0.00121   0.00105   0.00064  -0.00132
 123       13D-2        0.00000   0.00000   0.00000   0.00000   0.00000
 124       14D 0       -0.00008  -0.00009   0.00005  -0.00007   0.00008
 125       14D+1        0.00000   0.00000   0.00000   0.00000   0.00000
 126       14D-1        0.00030   0.00014   0.00026  -0.00014   0.00065
 127       14D+2       -0.00034  -0.00069   0.00002   0.00007  -0.00052
 128       14D-2        0.00000   0.00000   0.00000   0.00000   0.00000
 129       15F 0        0.00000  -0.00001   0.00003  -0.00002   0.00002
 130       15F+1        0.00000   0.00000   0.00000   0.00000   0.00000
 131       15F-1        0.00000  -0.00007  -0.00001   0.00004  -0.00002
 132       15F+2        0.00000   0.00004   0.00003  -0.00004  -0.00001
 133       15F-2        0.00000   0.00000   0.00000   0.00000   0.00000
 134       15F+3        0.00000   0.00000   0.00000   0.00000   0.00000
 135       15F-3       -0.00003   0.00002   0.00007   0.00003  -0.00005
 136       16F 0       -0.00004   0.00029  -0.00006   0.00013  -0.00034
 137       16F+1        0.00000   0.00000   0.00000   0.00000   0.00000
 138       16F-1        0.00001  -0.00047   0.00000  -0.00012   0.00039
 139       16F+2       -0.00016   0.00059   0.00018   0.00028  -0.00060
 140       16F-2        0.00000   0.00000   0.00000   0.00000   0.00000
 141       16F+3        0.00000   0.00000   0.00000   0.00000   0.00000
 142       16F-3       -0.00011   0.00017   0.00021   0.00007  -0.00023
 143 4   Cl 1S         -0.17734   0.11115  -0.09110  -0.03777   0.03627
 144        2S          0.59826  -0.37707   0.31090   0.12883  -0.12378
 145        3S         -0.01784   0.00660  -0.00468  -0.00159   0.00082
 146        4S          0.04655  -0.03138   0.02535   0.01084  -0.01109
 147        5S         -0.00189   0.00640  -0.00430  -0.00349   0.00811
 148        6S         -0.00022  -0.00280  -0.00089  -0.00077   0.00225
 149        7PX         0.00000   0.00000   0.00000   0.00000   0.00000
 150        7PY         0.29936   0.47638  -0.34698  -0.22001   0.31166
 151        7PZ        -0.16400  -0.32833   0.19655   0.13766  -0.18618
 152        8PX         0.00000   0.00000   0.00000   0.00000   0.00000
 153        8PY        -0.00527  -0.00841   0.00514   0.00333  -0.00519
 154        8PZ         0.00287   0.00624  -0.00295  -0.00214   0.00365
 155        9PX         0.00000   0.00000   0.00000   0.00000   0.00000
 156        9PY         0.01703   0.02907  -0.02114  -0.01369   0.01998
 157        9PZ        -0.00938  -0.02020   0.01200   0.00857  -0.01209
 158       10PX         0.00000   0.00000   0.00000   0.00000   0.00000
 159       10PY        -0.00224  -0.00005   0.00107   0.00094  -0.00308
 160       10PZ         0.00119   0.00051  -0.00041  -0.00094   0.00218
 161       11PX         0.00000   0.00000   0.00000   0.00000   0.00000
 162       11PY        -0.00003   0.00010   0.00006   0.00005  -0.00020
 163       11PZ         0.00012  -0.00026  -0.00004  -0.00016   0.00018
 164       12D 0       -0.00005  -0.00001   0.00000   0.00002   0.00000
 165       12D+1        0.00000   0.00000   0.00000   0.00000   0.00000
 166       12D-1       -0.00017   0.00042  -0.00025  -0.00024   0.00035
 167       12D+2       -0.00009   0.00032  -0.00023  -0.00014   0.00022
 168       12D-2        0.00000   0.00000   0.00000   0.00000   0.00000
 169       13D 0       -0.00007   0.00047   0.00011   0.00009   0.00006
 170       13D+1        0.00000   0.00000   0.00000   0.00000   0.00000
 171       13D-1       -0.00038  -0.00224   0.00088   0.00088  -0.00212
 172       13D+2       -0.00047  -0.00121   0.00105   0.00064  -0.00132
 173       13D-2        0.00000   0.00000   0.00000   0.00000   0.00000
 174       14D 0       -0.00008   0.00009   0.00005  -0.00007   0.00008
 175       14D+1        0.00000   0.00000   0.00000   0.00000   0.00000
 176       14D-1       -0.00030   0.00014  -0.00026   0.00014  -0.00065
 177       14D+2       -0.00034   0.00069   0.00002   0.00007  -0.00052
 178       14D-2        0.00000   0.00000   0.00000   0.00000   0.00000
 179       15F 0        0.00000   0.00001   0.00003  -0.00002   0.00002
 180       15F+1        0.00000   0.00000   0.00000   0.00000   0.00000
 181       15F-1        0.00000  -0.00007   0.00001  -0.00004   0.00002
 182       15F+2        0.00000  -0.00004   0.00003  -0.00004  -0.00001
 183       15F-2        0.00000   0.00000   0.00000   0.00000   0.00000
 184       15F+3        0.00000   0.00000   0.00000   0.00000   0.00000
 185       15F-3        0.00003   0.00002  -0.00007  -0.00003   0.00005
 186       16F 0       -0.00004  -0.00029  -0.00006   0.00013  -0.00034
 187       16F+1        0.00000   0.00000   0.00000   0.00000   0.00000
 188       16F-1       -0.00001  -0.00047   0.00000   0.00012  -0.00039
 189       16F+2       -0.00016  -0.00059   0.00018   0.00028  -0.00060
 190       16F-2        0.00000   0.00000   0.00000   0.00000   0.00000
 191       16F+3        0.00000   0.00000   0.00000   0.00000   0.00000
 192       16F-3        0.00011   0.00017  -0.00021  -0.00007   0.00023
                          11        12        13        14        15
     Eigenvalues --     2.00000   2.00000   1.98108   1.97615   1.97458
   1 1   O  1S          0.00003   0.00000  -0.18598  -0.06330   0.00000
   2        2S          0.00001   0.00000   0.48229   0.17129   0.00000
   3        3S          0.00000   0.00000   0.13582   0.04922   0.00000
   4        4S          0.00003   0.00000   0.29633   0.13522   0.00000
   5        5S          0.00004   0.00000   0.02003   0.02319   0.00000
   6        6PX         0.00000   0.00000   0.00000   0.00000   0.00000
   7        6PY         0.00000   0.00000   0.00000   0.00000   0.04324
   8        6PZ         0.00000   0.00000  -0.00641   0.02890   0.00000
   9        7PX         0.00000   0.00000   0.00000   0.00000   0.00000
  10        7PY         0.00000   0.00001   0.00000   0.00000   0.05382
  11        7PZ         0.00000   0.00000  -0.01283   0.03062   0.00000
  12        8PX         0.00000   0.00000   0.00000   0.00000   0.00000
  13        8PY         0.00000   0.00006   0.00000   0.00000   0.03958
  14        8PZ         0.00003   0.00000   0.04825   0.02555   0.00000
  15        9PX         0.00000   0.00000   0.00000   0.00000   0.00000
  16        9PY         0.00000   0.00001   0.00000   0.00000   0.00093
  17        9PZ         0.00000   0.00000   0.01335  -0.00044   0.00000
  18       10D 0        0.00000   0.00000   0.00476   0.00002   0.00000
  19       10D+1        0.00000   0.00000   0.00000   0.00000   0.00000
  20       10D-1        0.00000   0.00000   0.00000   0.00000  -0.00202
  21       10D+2        0.00000   0.00000   0.00000  -0.00002   0.00000
  22       10D-2        0.00000   0.00000   0.00000   0.00000   0.00000
  23       11D 0       -0.00001   0.00000   0.01073   0.00144   0.00000
  24       11D+1        0.00000   0.00000   0.00000   0.00000   0.00000
  25       11D-1        0.00000   0.00000   0.00000   0.00000  -0.00520
  26       11D+2        0.00000   0.00000   0.00024   0.00096   0.00000
  27       11D-2        0.00000   0.00000   0.00000   0.00000   0.00000
  28       12D 0       -0.00002   0.00000  -0.01444  -0.00328   0.00000
  29       12D+1        0.00000   0.00000   0.00000   0.00000   0.00000
  30       12D-1        0.00000  -0.00002   0.00000   0.00000  -0.00401
  31       12D+2        0.00000   0.00000   0.00128   0.00132   0.00000
  32       12D-2        0.00000   0.00000   0.00000   0.00000   0.00000
  33       13F 0        0.00000   0.00000  -0.00270  -0.00033   0.00000
  34       13F+1        0.00000   0.00000   0.00000   0.00000   0.00000
  35       13F-1        0.00000   0.00000   0.00000   0.00000   0.00142
  36       13F+2        0.00000   0.00000   0.00021  -0.00004   0.00000
  37       13F-2        0.00000   0.00000   0.00000   0.00000   0.00000
  38       13F+3        0.00000   0.00000   0.00000   0.00000   0.00000
  39       13F-3        0.00000   0.00000   0.00000   0.00000   0.00008
  40       14F 0        0.00000   0.00000  -0.00012  -0.00057   0.00000
  41       14F+1        0.00000   0.00000   0.00000   0.00000   0.00000
  42       14F-1        0.00000   0.00000   0.00000   0.00000   0.00017
  43       14F+2        0.00000   0.00000  -0.00066  -0.00102   0.00000
  44       14F-2        0.00000   0.00000   0.00000   0.00000   0.00000
  45       14F+3        0.00000   0.00000   0.00000   0.00000   0.00000
  46       14F-3        0.00000   0.00000   0.00000   0.00000   0.00043
  47 2   C  1S         -0.00030   0.00000  -0.08290   0.04593   0.00000
  48        2S          0.00003   0.00000   0.19099  -0.12701   0.00000
  49        3S          0.00002   0.00000   0.04545  -0.02650   0.00000
  50        4S         -0.00013   0.00000   0.00231  -0.05560   0.00000
  51        5S         -0.00005   0.00000  -0.00463  -0.02454   0.00000
  52        6PX         0.00000   0.00000   0.00000   0.00000   0.00000
  53        6PY         0.00000  -0.00001   0.00000   0.00000   0.07109
  54        6PZ        -0.00001   0.00000   0.06104   0.05684   0.00000
  55        7PX         0.00000   0.00000   0.00000   0.00000   0.00000
  56        7PY         0.00000   0.00004   0.00000   0.00000   0.09648
  57        7PZ         0.00005   0.00000   0.04722   0.06634   0.00000
  58        8PX         0.00000   0.00000   0.00000   0.00000   0.00000
  59        8PY         0.00000  -0.00009   0.00000   0.00000  -0.00747
  60        8PZ        -0.00001   0.00000  -0.01705  -0.00327   0.00000
  61        9PX         0.00000   0.00000   0.00000   0.00000   0.00000
  62        9PY         0.00000  -0.00001   0.00000   0.00000   0.00604
  63        9PZ         0.00000   0.00000  -0.00704   0.00332   0.00000
  64       10D 0        0.00000   0.00000   0.01515   0.00256   0.00000
  65       10D+1        0.00000   0.00000   0.00000   0.00000   0.00000
  66       10D-1        0.00000   0.00000   0.00000   0.00000  -0.00605
  67       10D+2        0.00000   0.00000  -0.00270   0.00660   0.00000
  68       10D-2        0.00000   0.00000   0.00000   0.00000   0.00000
  69       11D 0       -0.00001   0.00000   0.00657  -0.00218   0.00000
  70       11D+1        0.00000   0.00000   0.00000   0.00000   0.00000
  71       11D-1        0.00000  -0.00007   0.00000   0.00000  -0.01922
  72       11D+2        0.00005   0.00000  -0.00325   0.01165   0.00000
  73       11D-2        0.00000   0.00000   0.00000   0.00000   0.00000
  74       12D 0       -0.00003   0.00000  -0.01951  -0.00779   0.00000
  75       12D+1        0.00000   0.00000   0.00000   0.00000   0.00000
  76       12D-1        0.00000  -0.00001   0.00000   0.00000   0.00465
  77       12D+2        0.00001   0.00000  -0.00104  -0.00269   0.00000
  78       12D-2        0.00000   0.00000   0.00000   0.00000   0.00000
  79       13F 0        0.00000   0.00000   0.00577  -0.00204   0.00000
  80       13F+1        0.00000   0.00000   0.00000   0.00000   0.00000
  81       13F-1        0.00000   0.00000   0.00000   0.00000   0.00229
  82       13F+2       -0.00001   0.00000   0.00256  -0.00423   0.00000
  83       13F-2        0.00000   0.00000   0.00000   0.00000   0.00000
  84       13F+3        0.00000   0.00000   0.00000   0.00000   0.00000
  85       13F-3        0.00000  -0.00001   0.00000   0.00000  -0.00265
  86       14F 0       -0.00003   0.00000  -0.00616  -0.00477   0.00000
  87       14F+1        0.00000   0.00000   0.00000   0.00000   0.00000
  88       14F-1        0.00000  -0.00001   0.00000   0.00000   0.00143
  89       14F+2       -0.00003   0.00000  -0.00270  -0.00581   0.00000
  90       14F-2        0.00000   0.00000   0.00000   0.00000   0.00000
  91       14F+3        0.00000   0.00000   0.00000   0.00000   0.00000
  92       14F-3        0.00000  -0.00001   0.00000   0.00000   0.00006
  93 3   Cl 1S          0.70566   0.70458   0.01137  -0.04760  -0.05220
  94        2S          0.00701   0.00716  -0.04133   0.17851   0.19526
  95        3S          0.00011   0.00012   0.09312  -0.38001  -0.41841
  96        4S          0.00015   0.00016   0.01054  -0.04676  -0.05256
  97        5S          0.00001  -0.00006   0.05108  -0.22539  -0.25739
  98        6S          0.00001  -0.00007  -0.00291   0.01103   0.00586
  99        7PX         0.00000   0.00000   0.00000   0.00000   0.00000
 100        7PY        -0.00084  -0.00043  -0.00751   0.01507   0.00077
 101        7PZ        -0.00045  -0.00034  -0.00934   0.00150   0.00816
 102        8PX         0.00000   0.00000   0.00000   0.00000   0.00000
 103        8PY         0.00007   0.00006   0.01305  -0.02037   0.01567
 104        8PZ         0.00005   0.00004   0.02331   0.01043  -0.01100
 105        9PX         0.00000   0.00000   0.00000   0.00000   0.00000
 106        9PY        -0.00008  -0.00006   0.00604  -0.00959   0.00647
 107        9PZ        -0.00005  -0.00004   0.01005   0.00387  -0.00510
 108       10PX         0.00000   0.00000   0.00000   0.00000   0.00000
 109       10PY        -0.00001  -0.00006   0.00336   0.00228   0.01587
 110       10PZ        -0.00002  -0.00004   0.00301   0.00980  -0.00092
 111       11PX         0.00000   0.00000   0.00000   0.00000   0.00000
 112       11PY         0.00000  -0.00001  -0.00124   0.00380   0.00219
 113       11PZ         0.00000   0.00000   0.00094   0.00169   0.00264
 114       12D 0        0.00000   0.00000   0.00032   0.00144  -0.00092
 115       12D+1        0.00000   0.00000   0.00000   0.00000   0.00000
 116       12D-1        0.00000   0.00001   0.00347  -0.00584  -0.00590
 117       12D+2        0.00000   0.00000  -0.00269   0.00547   0.00302
 118       12D-2        0.00000   0.00000   0.00000   0.00000   0.00000
 119       13D 0        0.00000   0.00000  -0.00048   0.00213  -0.00244
 120       13D+1        0.00000   0.00000   0.00000   0.00000   0.00000
 121       13D-1        0.00003   0.00002   0.00379  -0.00507  -0.00489
 122       13D+2       -0.00001  -0.00001  -0.00148   0.00600   0.00136
 123       13D-2        0.00000   0.00000   0.00000   0.00000   0.00000
 124       14D 0        0.00000   0.00000  -0.00009  -0.00055  -0.00066
 125       14D+1        0.00000   0.00000   0.00000   0.00000   0.00000
 126       14D-1       -0.00001  -0.00002  -0.00197   0.00144   0.00189
 127       14D+2        0.00001   0.00002  -0.00094  -0.00195  -0.00292
 128       14D-2        0.00000   0.00000   0.00000   0.00000   0.00000
 129       15F 0        0.00000   0.00000  -0.00034   0.00140   0.00086
 130       15F+1        0.00000   0.00000   0.00000   0.00000   0.00000
 131       15F-1        0.00000   0.00000   0.00042  -0.00022  -0.00162
 132       15F+2       -0.00001   0.00000  -0.00080   0.00220   0.00220
 133       15F-2        0.00000   0.00000   0.00000   0.00000   0.00000
 134       15F+3        0.00000   0.00000   0.00000   0.00000   0.00000
 135       15F-3        0.00000   0.00000  -0.00061   0.00181   0.00084
 136       16F 0        0.00000   0.00000  -0.00041   0.00011  -0.00048
 137       16F+1        0.00000   0.00000   0.00000   0.00000   0.00000
 138       16F-1        0.00000   0.00000  -0.00027   0.00024  -0.00025
 139       16F+2        0.00000   0.00000   0.00017   0.00022  -0.00099
 140       16F-2        0.00000   0.00000   0.00000   0.00000   0.00000
 141       16F+3        0.00000   0.00000   0.00000   0.00000   0.00000
 142       16F-3        0.00000   0.00000   0.00092   0.00008  -0.00071
 143 4   Cl 1S          0.70463  -0.70561   0.01137  -0.04760   0.05220
 144        2S          0.00700  -0.00717  -0.04133   0.17851  -0.19526
 145        3S          0.00011  -0.00012   0.09312  -0.38001   0.41841
 146        4S          0.00015  -0.00016   0.01054  -0.04676   0.05256
 147        5S          0.00001   0.00006   0.05108  -0.22539   0.25739
 148        6S          0.00001   0.00007  -0.00291   0.01103  -0.00586
 149        7PX         0.00000   0.00000   0.00000   0.00000   0.00000
 150        7PY         0.00084  -0.00043   0.00751  -0.01507   0.00077
 151        7PZ        -0.00045   0.00034  -0.00934   0.00150  -0.00816
 152        8PX         0.00000   0.00000   0.00000   0.00000   0.00000
 153        8PY        -0.00007   0.00006  -0.01305   0.02037   0.01567
 154        8PZ         0.00005  -0.00004   0.02331   0.01043   0.01100
 155        9PX         0.00000   0.00000   0.00000   0.00000   0.00000
 156        9PY         0.00008  -0.00006  -0.00604   0.00959   0.00647
 157        9PZ        -0.00005   0.00004   0.01005   0.00387   0.00510
 158       10PX         0.00000   0.00000   0.00000   0.00000   0.00000
 159       10PY         0.00001  -0.00006  -0.00336  -0.00228   0.01587
 160       10PZ        -0.00002   0.00004   0.00301   0.00980   0.00092
 161       11PX         0.00000   0.00000   0.00000   0.00000   0.00000
 162       11PY         0.00000  -0.00001   0.00124  -0.00380   0.00219
 163       11PZ         0.00000   0.00000   0.00094   0.00169  -0.00264
 164       12D 0        0.00000   0.00000   0.00032   0.00144   0.00092
 165       12D+1        0.00000   0.00000   0.00000   0.00000   0.00000
 166       12D-1        0.00000   0.00001  -0.00347   0.00584  -0.00590
 167       12D+2        0.00000   0.00000  -0.00269   0.00547  -0.00302
 168       12D-2        0.00000   0.00000   0.00000   0.00000   0.00000
 169       13D 0        0.00000   0.00000  -0.00048   0.00213   0.00244
 170       13D+1        0.00000   0.00000   0.00000   0.00000   0.00000
 171       13D-1       -0.00003   0.00002  -0.00379   0.00507  -0.00489
 172       13D+2       -0.00001   0.00001  -0.00148   0.00600  -0.00136
 173       13D-2        0.00000   0.00000   0.00000   0.00000   0.00000
 174       14D 0        0.00000   0.00000  -0.00009  -0.00055   0.00066
 175       14D+1        0.00000   0.00000   0.00000   0.00000   0.00000
 176       14D-1        0.00001  -0.00002   0.00197  -0.00144   0.00189
 177       14D+2        0.00001  -0.00002  -0.00094  -0.00195   0.00292
 178       14D-2        0.00000   0.00000   0.00000   0.00000   0.00000
 179       15F 0        0.00000   0.00000  -0.00034   0.00140  -0.00086
 180       15F+1        0.00000   0.00000   0.00000   0.00000   0.00000
 181       15F-1        0.00000   0.00000  -0.00042   0.00022  -0.00162
 182       15F+2       -0.00001   0.00000  -0.00080   0.00220  -0.00220
 183       15F-2        0.00000   0.00000   0.00000   0.00000   0.00000
 184       15F+3        0.00000   0.00000   0.00000   0.00000   0.00000
 185       15F-3        0.00000   0.00000   0.00061  -0.00181   0.00084
 186       16F 0        0.00000   0.00000  -0.00041   0.00011   0.00048
 187       16F+1        0.00000   0.00000   0.00000   0.00000   0.00000
 188       16F-1        0.00000   0.00000   0.00027  -0.00024  -0.00025
 189       16F+2        0.00000   0.00000   0.00017   0.00022   0.00099
 190       16F-2        0.00000   0.00000   0.00000   0.00000   0.00000
 191       16F+3        0.00000   0.00000   0.00000   0.00000   0.00000
 192       16F-3        0.00000   0.00000  -0.00092  -0.00008  -0.00071
                          16        17        18        19        20
     Eigenvalues --     1.96226   1.95762   1.95158   1.94895   1.94742
   1 1   O  1S          0.03929   0.00000  -0.00837   0.00000   0.00000
   2        2S         -0.12728   0.00000   0.02150   0.00000   0.00000
   3        3S         -0.04201   0.00000   0.00672   0.00000   0.00000
   4        4S         -0.23436   0.00000   0.02366   0.00000   0.00000
   5        5S         -0.05881   0.00000   0.02405   0.00000   0.00000
   6        6PX         0.00000   0.00000   0.00000   0.02340   0.00000
   7        6PY         0.00000   0.29833   0.00000   0.00000   0.11325
   8        6PZ        -0.29220   0.00000  -0.00823   0.00000   0.00000
   9        7PX         0.00000   0.00000   0.00000   0.02972   0.00000
  10        7PY         0.00000   0.37039   0.00000   0.00000   0.13849
  11        7PZ        -0.34704   0.00000  -0.01136   0.00000   0.00000
  12        8PX         0.00000   0.00000   0.00000   0.01403   0.00000
  13        8PY         0.00000   0.27204   0.00000   0.00000   0.09680
  14        8PZ        -0.15389   0.00000  -0.00074   0.00000   0.00000
  15        9PX         0.00000   0.00000   0.00000  -0.01217   0.00000
  16        9PY         0.00000   0.03794   0.00000   0.00000   0.01559
  17        9PZ         0.00106   0.00000   0.00047   0.00000   0.00000
  18       10D 0        0.01303   0.00000   0.00024   0.00000   0.00000
  19       10D+1        0.00000   0.00000   0.00000  -0.00292   0.00000
  20       10D-1        0.00000  -0.00878   0.00000   0.00000  -0.00203
  21       10D+2       -0.00002   0.00000   0.00057   0.00000   0.00000
  22       10D-2        0.00000   0.00000   0.00000   0.00000   0.00000
  23       11D 0        0.02667   0.00000   0.00142   0.00000   0.00000
  24       11D+1        0.00000   0.00000   0.00000  -0.00829   0.00000
  25       11D-1        0.00000  -0.02581   0.00000   0.00000  -0.00267
  26       11D+2        0.00113   0.00000   0.00046   0.00000   0.00000
  27       11D-2        0.00000   0.00000   0.00000   0.00000   0.00000
  28       12D 0       -0.00245   0.00000  -0.00122   0.00000   0.00000
  29       12D+1        0.00000   0.00000   0.00000  -0.00682   0.00000
  30       12D-1        0.00000  -0.01714   0.00000   0.00000  -0.00150
  31       12D+2        0.00207   0.00000   0.00222   0.00000   0.00000
  32       12D-2        0.00000   0.00000   0.00000   0.00000   0.00000
  33       13F 0       -0.00484   0.00000  -0.00005   0.00000   0.00000
  34       13F+1        0.00000   0.00000   0.00000   0.00156   0.00000
  35       13F-1        0.00000   0.00553   0.00000   0.00000   0.00096
  36       13F+2       -0.00069   0.00000  -0.00017   0.00000   0.00000
  37       13F-2        0.00000   0.00000   0.00000   0.00000   0.00000
  38       13F+3        0.00000   0.00000   0.00000  -0.00003   0.00000
  39       13F-3        0.00000   0.00092   0.00000   0.00000   0.00047
  40       14F 0       -0.00414   0.00000  -0.00025   0.00000   0.00000
  41       14F+1        0.00000   0.00000   0.00000   0.00108   0.00000
  42       14F-1        0.00000   0.00428   0.00000   0.00000  -0.00004
  43       14F+2       -0.00159   0.00000   0.00033   0.00000   0.00000
  44       14F-2        0.00000   0.00000   0.00000   0.00000   0.00000
  45       14F+3        0.00000   0.00000   0.00000   0.00071   0.00000
  46       14F-3        0.00000   0.00099   0.00000   0.00000   0.00012
  47 2   C  1S         -0.11522   0.00000  -0.03632   0.00000   0.00000
  48        2S          0.31342   0.00000   0.10205   0.00000   0.00000
  49        3S          0.08210   0.00000   0.02529   0.00000   0.00000
  50        4S          0.10982   0.00000   0.05365   0.00000   0.00000
  51        5S          0.00824   0.00000   0.01345   0.00000   0.00000
  52        6PX         0.00000   0.00000   0.00000   0.10895   0.00000
  53        6PY         0.00000   0.14314   0.00000   0.00000   0.01540
  54        6PZ         0.14575   0.00000  -0.04943   0.00000   0.00000
  55        7PX         0.00000   0.00000   0.00000   0.15083   0.00000
  56        7PY         0.00000   0.18727   0.00000   0.00000   0.02347
  57        7PZ         0.15489   0.00000  -0.07116   0.00000   0.00000
  58        8PX         0.00000   0.00000   0.00000   0.04472   0.00000
  59        8PY         0.00000   0.01623   0.00000   0.00000   0.00479
  60        8PZ        -0.00020   0.00000  -0.02648   0.00000   0.00000
  61        9PX         0.00000   0.00000   0.00000   0.01266   0.00000
  62        9PY         0.00000  -0.00875   0.00000   0.00000  -0.01011
  63        9PZ        -0.00239   0.00000  -0.01076   0.00000   0.00000
  64       10D 0        0.01511   0.00000   0.01078   0.00000   0.00000
  65       10D+1        0.00000   0.00000   0.00000  -0.00505   0.00000
  66       10D-1        0.00000   0.02031   0.00000   0.00000   0.00384
  67       10D+2       -0.00010   0.00000   0.00394   0.00000   0.00000
  68       10D-2        0.00000   0.00000   0.00000   0.00000   0.00000
  69       11D 0        0.00159   0.00000   0.03306   0.00000   0.00000
  70       11D+1        0.00000   0.00000   0.00000  -0.02764   0.00000
  71       11D-1        0.00000   0.02034   0.00000   0.00000   0.00289
  72       11D+2       -0.00464   0.00000   0.01541   0.00000   0.00000
  73       11D-2        0.00000   0.00000   0.00000   0.00000   0.00000
  74       12D 0        0.00065   0.00000  -0.02350   0.00000   0.00000
  75       12D+1        0.00000   0.00000   0.00000  -0.00815   0.00000
  76       12D-1        0.00000  -0.01492   0.00000   0.00000   0.01413
  77       12D+2        0.00462   0.00000  -0.01768   0.00000   0.00000
  78       12D-2        0.00000   0.00000   0.00000   0.00000   0.00000
  79       13F 0        0.00893   0.00000  -0.00067   0.00000   0.00000
  80       13F+1        0.00000   0.00000   0.00000   0.00241   0.00000
  81       13F-1        0.00000   0.00506   0.00000   0.00000   0.00852
  82       13F+2        0.00180   0.00000   0.00173   0.00000   0.00000
  83       13F-2        0.00000   0.00000   0.00000   0.00000   0.00000
  84       13F+3        0.00000   0.00000   0.00000  -0.00482   0.00000
  85       13F-3        0.00000  -0.00290   0.00000   0.00000   0.00150
  86       14F 0       -0.00919   0.00000  -0.00459   0.00000   0.00000
  87       14F+1        0.00000   0.00000   0.00000  -0.00050   0.00000
  88       14F-1        0.00000   0.00167   0.00000   0.00000   0.01449
  89       14F+2       -0.00305   0.00000  -0.00099   0.00000   0.00000
  90       14F-2        0.00000   0.00000   0.00000   0.00000   0.00000
  91       14F+3        0.00000   0.00000   0.00000  -0.00309   0.00000
  92       14F-3        0.00000   0.00088   0.00000   0.00000   0.00349
  93 3   Cl 1S         -0.01211   0.01496  -0.01059   0.00000  -0.00122
  94        2S          0.04685  -0.05700   0.04022   0.00000   0.00484
  95        3S         -0.09574   0.12218  -0.08733   0.00000  -0.00945
  96        4S         -0.01296   0.01706  -0.01366   0.00000  -0.00196
  97        5S         -0.08099   0.11743  -0.08220   0.00000  -0.01047
  98        6S         -0.00807   0.00766  -0.02260   0.00000  -0.01295
  99        7PX         0.00000   0.00000   0.00000  -0.14867   0.00000
 100        7PY        -0.00394   0.00382  -0.10735   0.00000   0.09083
 101        7PZ        -0.01641   0.04478   0.10852   0.00000  -0.13987
 102        8PX         0.00000   0.00000   0.00000   0.35028   0.00000
 103        8PY         0.00518   0.00361   0.24789   0.00000  -0.21239
 104        8PZ         0.03594  -0.09823  -0.25931   0.00000   0.33172
 105        9PX         0.00000   0.00000   0.00000   0.16355   0.00000
 106        9PY         0.00432  -0.00235   0.11714   0.00000  -0.10279
 107        9PZ         0.01840  -0.04890  -0.12413   0.00000   0.15738
 108       10PX         0.00000   0.00000   0.00000   0.19691   0.00000
 109       10PY        -0.01538   0.03105   0.12755   0.00000  -0.13533
 110       10PZ         0.00771  -0.03954  -0.17617   0.00000   0.20736
 111       11PX         0.00000   0.00000   0.00000   0.00087   0.00000
 112       11PY        -0.00094   0.00441   0.00033   0.00000  -0.00657
 113       11PZ         0.00004   0.00266  -0.00752   0.00000   0.01034
 114       12D 0        0.00318  -0.00567  -0.00693   0.00000   0.00095
 115       12D+1        0.00000   0.00000   0.00000   0.00554   0.00000
 116       12D-1        0.00598  -0.01037   0.00157   0.00000  -0.00135
 117       12D+2       -0.00116   0.00445  -0.00945   0.00000   0.00067
 118       12D-2        0.00000   0.00000   0.00000   0.01066   0.00000
 119       13D 0        0.00226  -0.00868  -0.00843   0.00000  -0.00082
 120       13D+1        0.00000   0.00000   0.00000   0.00825   0.00000
 121       13D-1        0.00560  -0.00702   0.00110   0.00000  -0.00086
 122       13D+2        0.00142   0.00057  -0.01150   0.00000  -0.00154
 123       13D-2        0.00000   0.00000   0.00000   0.01639   0.00000
 124       14D 0        0.00228  -0.00610  -0.00792   0.00000   0.00130
 125       14D+1        0.00000   0.00000   0.00000   0.00171   0.00000
 126       14D-1       -0.00038  -0.00181  -0.00345   0.00000   0.00144
 127       14D+2        0.00314  -0.00291  -0.00567   0.00000   0.00045
 128       14D-2        0.00000   0.00000   0.00000   0.00532   0.00000
 129       15F 0        0.00027  -0.00022  -0.00197   0.00000   0.00083
 130       15F+1        0.00000   0.00000   0.00000   0.00051   0.00000
 131       15F-1        0.00154  -0.00360  -0.00400   0.00000   0.00274
 132       15F+2       -0.00047   0.00231  -0.00132   0.00000   0.00033
 133       15F-2        0.00000   0.00000   0.00000   0.00440   0.00000
 134       15F+3        0.00000   0.00000   0.00000  -0.00433   0.00000
 135       15F-3        0.00028   0.00051  -0.00322   0.00000   0.00094
 136       16F 0       -0.00152  -0.00135  -0.00046   0.00000  -0.00047
 137       16F+1        0.00000   0.00000   0.00000  -0.00046   0.00000
 138       16F-1       -0.00017  -0.00052  -0.00207   0.00000   0.00147
 139       16F+2       -0.00014  -0.00211  -0.00053   0.00000  -0.00057
 140       16F-2        0.00000   0.00000   0.00000   0.00224   0.00000
 141       16F+3        0.00000   0.00000   0.00000  -0.00246   0.00000
 142       16F-3        0.00112  -0.00160  -0.00110   0.00000  -0.00055
 143 4   Cl 1S         -0.01211  -0.01496  -0.01059   0.00000   0.00122
 144        2S          0.04685   0.05700   0.04022   0.00000  -0.00484
 145        3S         -0.09574  -0.12218  -0.08733   0.00000   0.00945
 146        4S         -0.01296  -0.01706  -0.01366   0.00000   0.00196
 147        5S         -0.08099  -0.11743  -0.08220   0.00000   0.01047
 148        6S         -0.00807  -0.00766  -0.02260   0.00000   0.01295
 149        7PX         0.00000   0.00000   0.00000  -0.14867   0.00000
 150        7PY         0.00394   0.00382   0.10735   0.00000   0.09083
 151        7PZ        -0.01641  -0.04478   0.10852   0.00000   0.13987
 152        8PX         0.00000   0.00000   0.00000   0.35028   0.00000
 153        8PY        -0.00518   0.00361  -0.24789   0.00000  -0.21239
 154        8PZ         0.03594   0.09823  -0.25931   0.00000  -0.33172
 155        9PX         0.00000   0.00000   0.00000   0.16355   0.00000
 156        9PY        -0.00432  -0.00235  -0.11714   0.00000  -0.10279
 157        9PZ         0.01840   0.04890  -0.12413   0.00000  -0.15738
 158       10PX         0.00000   0.00000   0.00000   0.19691   0.00000
 159       10PY         0.01538   0.03105  -0.12755   0.00000  -0.13533
 160       10PZ         0.00771   0.03954  -0.17617   0.00000  -0.20736
 161       11PX         0.00000   0.00000   0.00000   0.00087   0.00000
 162       11PY         0.00094   0.00441  -0.00033   0.00000  -0.00657
 163       11PZ         0.00004  -0.00266  -0.00752   0.00000  -0.01034
 164       12D 0        0.00318   0.00567  -0.00693   0.00000  -0.00095
 165       12D+1        0.00000   0.00000   0.00000   0.00554   0.00000
 166       12D-1       -0.00598  -0.01037  -0.00157   0.00000  -0.00135
 167       12D+2       -0.00116  -0.00445  -0.00945   0.00000  -0.00067
 168       12D-2        0.00000   0.00000   0.00000  -0.01066   0.00000
 169       13D 0        0.00226   0.00868  -0.00843   0.00000   0.00082
 170       13D+1        0.00000   0.00000   0.00000   0.00825   0.00000
 171       13D-1       -0.00560  -0.00702  -0.00110   0.00000  -0.00086
 172       13D+2        0.00142  -0.00057  -0.01150   0.00000   0.00154
 173       13D-2        0.00000   0.00000   0.00000  -0.01639   0.00000
 174       14D 0        0.00228   0.00610  -0.00792   0.00000  -0.00130
 175       14D+1        0.00000   0.00000   0.00000   0.00171   0.00000
 176       14D-1        0.00038  -0.00181   0.00345   0.00000   0.00144
 177       14D+2        0.00314   0.00291  -0.00567   0.00000  -0.00045
 178       14D-2        0.00000   0.00000   0.00000  -0.00532   0.00000
 179       15F 0        0.00027   0.00022  -0.00197   0.00000  -0.00083
 180       15F+1        0.00000   0.00000   0.00000   0.00051   0.00000
 181       15F-1       -0.00154  -0.00360   0.00400   0.00000   0.00274
 182       15F+2       -0.00047  -0.00231  -0.00132   0.00000  -0.00033
 183       15F-2        0.00000   0.00000   0.00000  -0.00440   0.00000
 184       15F+3        0.00000   0.00000   0.00000  -0.00433   0.00000
 185       15F-3       -0.00028   0.00051   0.00322   0.00000   0.00094
 186       16F 0       -0.00152   0.00135  -0.00046   0.00000   0.00047
 187       16F+1        0.00000   0.00000   0.00000  -0.00046   0.00000
 188       16F-1        0.00017  -0.00052   0.00207   0.00000   0.00147
 189       16F+2       -0.00014   0.00211  -0.00053   0.00000   0.00057
 190       16F-2        0.00000   0.00000   0.00000  -0.00224   0.00000
 191       16F+3        0.00000   0.00000   0.00000  -0.00246   0.00000
 192       16F-3       -0.00112  -0.00160   0.00110   0.00000  -0.00055
                          21        22        23        24        25
     Eigenvalues --     1.94722   1.94711   1.93696   1.93009   0.06779
   1 1   O  1S          0.00000  -0.02689   0.00000   0.00000   0.00000
   2        2S          0.00000   0.07248   0.00000   0.00000   0.00000
   3        3S          0.00000   0.02022   0.00000   0.00000   0.00000
   4        4S          0.00000   0.02806   0.00000   0.00000   0.00000
   5        5S          0.00000   0.00070   0.00000   0.00000   0.00000
   6        6PX         0.00000   0.00000   0.00000   0.29551  -0.34316
   7        6PY         0.00000   0.00000  -0.14066   0.00000   0.00000
   8        6PZ         0.00000  -0.10672   0.00000   0.00000   0.00000
   9        7PX         0.00000   0.00000   0.00000   0.37042  -0.39474
  10        7PY         0.00000   0.00000  -0.17486   0.00000   0.00000
  11        7PZ         0.00000  -0.13085   0.00000   0.00000   0.00000
  12        8PX         0.00000   0.00000   0.00000   0.24893  -0.07049
  13        8PY         0.00000   0.00000  -0.12131   0.00000   0.00000
  14        8PZ         0.00000  -0.04535   0.00000   0.00000   0.00000
  15        9PX         0.00000   0.00000   0.00000   0.02615  -0.00280
  16        9PY         0.00000   0.00000  -0.02167   0.00000   0.00000
  17        9PZ         0.00000   0.00316   0.00000   0.00000   0.00000
  18       10D 0        0.00000   0.00492   0.00000   0.00000   0.00000
  19       10D+1        0.00000   0.00000   0.00000  -0.01018  -0.01275
  20       10D-1        0.00000   0.00000   0.00022   0.00000   0.00000
  21       10D+2        0.00000   0.00003   0.00000   0.00000   0.00000
  22       10D-2       -0.00037   0.00000   0.00000   0.00000   0.00000
  23       11D 0        0.00000   0.00981   0.00000   0.00000   0.00000
  24       11D+1        0.00000   0.00000   0.00000  -0.02803  -0.01125
  25       11D-1        0.00000   0.00000  -0.00020   0.00000   0.00000
  26       11D+2        0.00000   0.00201   0.00000   0.00000   0.00000
  27       11D-2       -0.00168   0.00000   0.00000   0.00000   0.00000
  28       12D 0        0.00000  -0.01177   0.00000   0.00000   0.00000
  29       12D+1        0.00000   0.00000   0.00000  -0.01281   0.01496
  30       12D-1        0.00000   0.00000  -0.00753   0.00000   0.00000
  31       12D+2        0.00000   0.00223   0.00000   0.00000   0.00000
  32       12D-2       -0.00379   0.00000   0.00000   0.00000   0.00000
  33       13F 0        0.00000  -0.00200   0.00000   0.00000   0.00000
  34       13F+1        0.00000   0.00000   0.00000   0.00534   0.00392
  35       13F-1        0.00000   0.00000   0.00018   0.00000   0.00000
  36       13F+2        0.00000  -0.00047   0.00000   0.00000   0.00000
  37       13F-2        0.00032   0.00000   0.00000   0.00000   0.00000
  38       13F+3        0.00000   0.00000   0.00000   0.00106  -0.00259
  39       13F-3        0.00000   0.00000  -0.00045   0.00000   0.00000
  40       14F 0        0.00000  -0.00201   0.00000   0.00000   0.00000
  41       14F+1        0.00000   0.00000   0.00000   0.00351  -0.00515
  42       14F-1        0.00000   0.00000  -0.00065   0.00000   0.00000
  43       14F+2        0.00000  -0.00234   0.00000   0.00000   0.00000
  44       14F-2        0.00119   0.00000   0.00000   0.00000   0.00000
  45       14F+3        0.00000   0.00000   0.00000   0.00088  -0.00083
  46       14F-3        0.00000   0.00000  -0.00020   0.00000   0.00000
  47 2   C  1S          0.00000   0.07505   0.00000   0.00000   0.00000
  48        2S          0.00000  -0.21527   0.00000   0.00000   0.00000
  49        3S          0.00000  -0.04626   0.00000   0.00000   0.00000
  50        4S          0.00000  -0.16347   0.00000   0.00000   0.00000
  51        5S          0.00000  -0.02164   0.00000   0.00000   0.00000
  52        6PX         0.00000   0.00000   0.00000   0.17322   0.30847
  53        6PY         0.00000   0.00000   0.14107   0.00000   0.00000
  54        6PZ         0.00000   0.17456   0.00000   0.00000   0.00000
  55        7PX         0.00000   0.00000   0.00000   0.22192   0.46554
  56        7PY         0.00000   0.00000   0.20011   0.00000   0.00000
  57        7PZ         0.00000   0.22351   0.00000   0.00000   0.00000
  58        8PX         0.00000   0.00000   0.00000   0.08553   0.15470
  59        8PY         0.00000   0.00000   0.02923   0.00000   0.00000
  60        8PZ         0.00000   0.03553   0.00000   0.00000   0.00000
  61        9PX         0.00000   0.00000   0.00000  -0.00152   0.00997
  62        9PY         0.00000   0.00000  -0.00033   0.00000   0.00000
  63        9PZ         0.00000  -0.00728   0.00000   0.00000   0.00000
  64       10D 0        0.00000   0.01292   0.00000   0.00000   0.00000
  65       10D+1        0.00000   0.00000   0.00000   0.02342  -0.00027
  66       10D-1        0.00000   0.00000  -0.02874   0.00000   0.00000
  67       10D+2        0.00000   0.00964   0.00000   0.00000   0.00000
  68       10D-2       -0.01043   0.00000   0.00000   0.00000   0.00000
  69       11D 0        0.00000   0.00952   0.00000   0.00000   0.00000
  70       11D+1        0.00000   0.00000   0.00000   0.03681   0.02227
  71       11D-1        0.00000   0.00000  -0.07184   0.00000   0.00000
[...]
  75       12D+1        0.00000   0.00000   0.78863   0.00000   0.00000
  76       12D-1       -7.08251   0.00000   0.00000  -2.09480   1.14486
  77       12D+2        0.00000   1.43055   0.00000   0.00000   0.00000
  78       12D-2        0.00000   0.00000   0.00000   0.00000   0.00000
  79       13F 0        0.00000  -0.05400   0.00000   0.00000   0.00000
  80       13F+1        0.00000   0.00000  -0.09447   0.00000   0.00000
  81       13F-1        0.02158   0.00000   0.00000  -0.07651  -0.01384
  82       13F+2        0.00000  -0.03931   0.00000   0.00000   0.00000
  83       13F-2        0.00000   0.00000   0.00000   0.00000   0.00000
  84       13F+3        0.00000   0.00000   0.03959   0.00000   0.00000
  85       13F-3        0.00744   0.00000   0.00000   0.01194   0.01879
  86       14F 0        0.00000   0.09990   0.00000   0.00000   0.00000
  87       14F+1        0.00000   0.00000  -0.17781   0.00000   0.00000
  88       14F-1       -0.45646   0.00000   0.00000  -0.21303  -0.19789
  89       14F+2        0.00000   0.25395   0.00000   0.00000   0.00000
  90       14F-2        0.00000   0.00000   0.00000   0.00000   0.00000
  91       14F+3        0.00000   0.00000   0.01027   0.00000   0.00000
  92       14F-3       -0.20195   0.00000   0.00000  -0.19913  -0.09191
  93 3   Cl 1S         -0.02932  -0.01472   0.00000  -0.01087   0.00979
  94        2S         -0.46921  -0.22183   0.00000  -0.13648   0.16631
  95        3S         -1.18031  -0.57947   0.00000  -0.41138   0.39700
  96        4S          0.23184   0.09419   0.00000  -0.02951  -0.13278
  97        5S          6.91614   1.75315   0.00000   3.45676  -1.22188
  98        6S          3.13792   1.46572   0.00000  12.89152   0.23066
  99        7PX         0.00000   0.00000  -0.01679   0.00000   0.00000
 100        7PY        -0.00702   0.00364   0.00000  -0.01315  -0.00015
 101        7PZ         0.01099  -0.00756   0.00000   0.00163   0.00477
 102        8PX         0.00000   0.00000  -0.21460   0.00000   0.00000
 103        8PY        -0.00068   0.05837   0.00000  -0.21296   0.08307
 104        8PZ         0.28245  -0.08835   0.00000   0.01355   0.11138
 105        9PX         0.00000   0.00000   0.06512   0.00000   0.00000
 106        9PY         0.02023  -0.02952   0.00000   0.04962   0.00328
 107        9PZ        -0.04477   0.01399   0.00000  -0.00930  -0.01671
 108       10PX         0.00000   0.00000   0.93220   0.00000   0.00000
 109       10PY         3.44753   0.40022   0.00000   4.64124  -0.78842
 110       10PZ         1.19720   1.90883   0.00000   3.42919  -0.32033
 111       11PX         0.00000   0.00000  -2.25018   0.00000   0.00000
 112       11PY         0.51650  -0.67002   0.00000   2.02144  -3.21050
 113       11PZ        -0.30149  -2.02442   0.00000   1.63493   0.57561
 114       12D 0       -0.00878  -0.04233   0.00000  -0.02078   0.00753
 115       12D+1        0.00000   0.00000  -0.02689   0.00000   0.00000
 116       12D-1       -0.05143  -0.08374   0.00000   0.01772  -0.01652
 117       12D+2        0.01062   0.06976   0.00000  -0.02917   0.06179
 118       12D-2        0.00000   0.00000  -0.00969   0.00000   0.00000
 119       13D 0        0.12805   0.17204   0.00000   0.12748  -0.01207
 120       13D+1        0.00000   0.00000   0.08345   0.00000   0.00000
 121       13D-1        0.38902   0.37275   0.00000   0.06094   0.13338
 122       13D+2       -0.12547  -0.28523   0.00000   0.05580  -0.27012
 123       13D-2        0.00000   0.00000   0.03467   0.00000   0.00000
 124       14D 0       -0.57331   0.26230   0.00000   0.09871   0.26383
 125       14D+1        0.00000   0.00000  -0.08326   0.00000   0.00000
 126       14D-1        0.21806   0.11685   0.00000   1.55254  -0.25894
 127       14D+2       -0.26893   0.38173   0.00000  -0.99198   0.79227
 128       14D-2        0.00000   0.00000   0.19657   0.00000   0.00000
 129       15F 0        0.03403  -0.00165   0.00000   0.00888   0.01305
 130       15F+1        0.00000   0.00000  -0.00439   0.00000   0.00000
 131       15F-1        0.00299  -0.04243   0.00000  -0.04721  -0.00030
 132       15F+2        0.00138   0.02777   0.00000   0.01263   0.00186
 133       15F-2        0.00000   0.00000  -0.01617   0.00000   0.00000
 134       15F+3        0.00000   0.00000   0.04354   0.00000   0.00000
 135       15F-3       -0.03245  -0.00263   0.00000  -0.00635   0.01123
 136       16F 0       -0.13731   0.00493   0.00000  -0.03706  -0.02239
 137       16F+1        0.00000   0.00000  -0.00311   0.00000   0.00000
 138       16F-1        0.06424   0.18166   0.00000   0.19656   0.03885
 139       16F+2       -0.10089  -0.12974   0.00000  -0.11375  -0.01657
 140       16F-2        0.00000   0.00000   0.03530   0.00000   0.00000
 141       16F+3        0.00000   0.00000  -0.10525   0.00000   0.00000
 142       16F-3        0.03342  -0.03419   0.00000  -0.02469   0.00060
 143 4   Cl 1S          0.02932  -0.01472   0.00000   0.01087  -0.00979
 144        2S          0.46921  -0.22183   0.00000   0.13648  -0.16631
 145        3S          1.18031  -0.57947   0.00000   0.41138  -0.39700
 146        4S         -0.23184   0.09419   0.00000   0.02951   0.13278
 147        5S         -6.91614   1.75315   0.00000  -3.45676   1.22188
 148        6S         -3.13792   1.46572   0.00000 -12.89152  -0.23066
 149        7PX         0.00000   0.00000  -0.01679   0.00000   0.00000
 150        7PY        -0.00702  -0.00364   0.00000  -0.01315  -0.00015
 151        7PZ        -0.01099  -0.00756   0.00000  -0.00163  -0.00477
 152        8PX         0.00000   0.00000  -0.21460   0.00000   0.00000
 153        8PY        -0.00068  -0.05837   0.00000  -0.21296   0.08307
 154        8PZ        -0.28245  -0.08835   0.00000  -0.01355  -0.11138
 155        9PX         0.00000   0.00000   0.06512   0.00000   0.00000
 156        9PY         0.02023   0.02952   0.00000   0.04962   0.00328
 157        9PZ         0.04477   0.01399   0.00000   0.00930   0.01671
 158       10PX         0.00000   0.00000   0.93220   0.00000   0.00000
 159       10PY         3.44753  -0.40022   0.00000   4.64124  -0.78842
 160       10PZ        -1.19720   1.90883   0.00000  -3.42919   0.32033
 161       11PX         0.00000   0.00000  -2.25018   0.00000   0.00000
 162       11PY         0.51650   0.67002   0.00000   2.02144  -3.21050
 163       11PZ         0.30149  -2.02442   0.00000  -1.63493  -0.57561
 164       12D 0        0.00878  -0.04233   0.00000   0.02078  -0.00753
 165       12D+1        0.00000   0.00000  -0.02689   0.00000   0.00000
 166       12D-1       -0.05143   0.08374   0.00000   0.01772  -0.01652
 167       12D+2       -0.01062   0.06976   0.00000   0.02917  -0.06179
 168       12D-2        0.00000   0.00000   0.00969   0.00000   0.00000
 169       13D 0       -0.12805   0.17204   0.00000  -0.12748   0.01207
 170       13D+1        0.00000   0.00000   0.08345   0.00000   0.00000
 171       13D-1        0.38902  -0.37275   0.00000   0.06094   0.13338
 172       13D+2        0.12547  -0.28523   0.00000  -0.05580   0.27012
 173       13D-2        0.00000   0.00000  -0.03467   0.00000   0.00000
 174       14D 0        0.57331   0.26230   0.00000  -0.09871  -0.26383
 175       14D+1        0.00000   0.00000  -0.08326   0.00000   0.00000
 176       14D-1        0.21806  -0.11685   0.00000   1.55254  -0.25894
 177       14D+2        0.26893   0.38173   0.00000   0.99198  -0.79227
 178       14D-2        0.00000   0.00000  -0.19657   0.00000   0.00000
 179       15F 0       -0.03403  -0.00165   0.00000  -0.00888  -0.01305
 180       15F+1        0.00000   0.00000  -0.00439   0.00000   0.00000
 181       15F-1        0.00299   0.04243   0.00000  -0.04721  -0.00030
 182       15F+2       -0.00138   0.02777   0.00000  -0.01263  -0.00186
 183       15F-2        0.00000   0.00000   0.01617   0.00000   0.00000
 184       15F+3        0.00000   0.00000   0.04354   0.00000   0.00000
 185       15F-3       -0.03245   0.00263   0.00000  -0.00635   0.01123
 186       16F 0        0.13731   0.00493   0.00000   0.03706   0.02239
 187       16F+1        0.00000   0.00000  -0.00311   0.00000   0.00000
 188       16F-1        0.06424  -0.18166   0.00000   0.19656   0.03885
 189       16F+2        0.10089  -0.12974   0.00000   0.11375   0.01657
 190       16F-2        0.00000   0.00000  -0.03530   0.00000   0.00000
 191       16F+3        0.00000   0.00000  -0.10525   0.00000   0.00000
 192       16F-3        0.03342   0.03419   0.00000  -0.02469   0.00060
                         191       192
     Eigenvalues --     0.00000   0.00000
   1 1   O  1S          0.07416   0.06992
   2        2S          0.39553   0.35725
   3        3S          0.00959  -0.01549
   4        4S         -4.64048  -2.85489
   5        5S         -9.57938  -8.43135
   6        6PX         0.00000   0.00000
   7        6PY         0.00000   0.00000
   8        6PZ        -0.00865   0.00574
   9        7PX         0.00000   0.00000
  10        7PY         0.00000   0.00000
  11        7PZ         0.14138  -0.02066
  12        8PX         0.00000   0.00000
  13        8PY         0.00000   0.00000
  14        8PZ         2.80149   2.11889
  15        9PX         0.00000   0.00000
  16        9PY         0.00000   0.00000
  17        9PZ        -1.34574   0.04693
  18       10D 0        0.04039   0.04067
  19       10D+1        0.00000   0.00000
  20       10D-1        0.00000   0.00000
  21       10D+2       -0.02867  -0.01379
  22       10D-2        0.00000   0.00000
  23       11D 0       -0.32158  -0.21057
  24       11D+1        0.00000   0.00000
  25       11D-1        0.00000   0.00000
  26       11D+2        0.08177   0.04254
  27       11D-2        0.00000   0.00000
  28       12D 0       -0.42231  -0.31191
  29       12D+1        0.00000   0.00000
  30       12D-1        0.00000   0.00000
  31       12D+2       -0.44626  -0.12246
  32       12D-2        0.00000   0.00000
  33       13F 0        0.00817  -0.01049
  34       13F+1        0.00000   0.00000
  35       13F-1        0.00000   0.00000
  36       13F+2       -0.01520  -0.00579
  37       13F-2        0.00000   0.00000
  38       13F+3        0.00000   0.00000
  39       13F-3        0.00000   0.00000
  40       14F 0        0.13477   0.11589
  41       14F+1        0.00000   0.00000
  42       14F-1        0.00000   0.00000
  43       14F+2        0.06889   0.02384
  44       14F-2        0.00000   0.00000
  45       14F+3        0.00000   0.00000
  46       14F-3        0.00000   0.00000
  47 2   C  1S          0.20455   0.02178
  48        2S          1.13056   0.20811
  49        3S         -0.05314   0.10224
  50        4S          6.72297  12.15365
  51        5S         -2.08178  19.36034
  52        6PX         0.00000   0.00000
  53        6PY         0.00000   0.00000
  54        6PZ         0.01767   0.00759
  55        7PX         0.00000   0.00000
  56        7PY         0.00000   0.00000
  57        7PZ         1.05907   0.58099
  58        8PX         0.00000   0.00000
  59        8PY         0.00000   0.00000
  60        8PZ         2.81472  -0.74836
  61        9PX         0.00000   0.00000
  62        9PY         0.00000   0.00000
  63        9PZ         7.24643  -0.67061
  64       10D 0        0.06238   0.04531
  65       10D+1        0.00000   0.00000
  66       10D-1        0.00000   0.00000
  67       10D+2        0.01328  -0.02123
  68       10D-2        0.00000   0.00000
  69       11D 0        0.52270   0.20551
  70       11D+1        0.00000   0.00000
  71       11D-1        0.00000   0.00000
  72       11D+2       -0.06635  -0.02854
  73       11D-2        0.00000   0.00000
  74       12D 0        3.26102   1.57805
  75       12D+1        0.00000   0.00000
  76       12D-1        0.00000   0.00000
  77       12D+2        1.51543  -0.76816
  78       12D-2        0.00000   0.00000
  79       13F 0        0.06180  -0.01188
  80       13F+1        0.00000   0.00000
  81       13F-1        0.00000   0.00000
  82       13F+2       -0.01104   0.00052
  83       13F-2        0.00000   0.00000
  84       13F+3        0.00000   0.00000
  85       13F-3        0.00000   0.00000
  86       14F 0       -0.04714  -0.04136
  87       14F+1        0.00000   0.00000
  88       14F-1        0.00000   0.00000
  89       14F+2        0.23796   0.01582
  90       14F-2        0.00000   0.00000
  91       14F+3        0.00000   0.00000
  92       14F-3        0.00000   0.00000
  93 3   Cl 1S          0.00770   0.00028
  94        2S          0.13200  -0.01703
  95        3S          0.31303  -0.00190
  96        4S         -0.09896   0.06901
  97        5S         -0.85607  -0.53073
  98        6S          4.58342 -10.25076
  99        7PX         0.00000   0.00000
 100        7PY        -0.00533   0.01044
 101        7PZ        -0.01727   0.00590
 102        8PX         0.00000   0.00000
 103        8PY        -0.08596   0.18116
 104        8PZ        -0.27085   0.10570
 105        9PX         0.00000   0.00000
 106        9PY         0.01933  -0.03698
 107        9PZ         0.06445  -0.02128
 108       10PX         0.00000   0.00000
 109       10PY        -0.84400  -2.85889
 110       10PZ         1.50549  -1.36347
 111       11PX         0.00000   0.00000
 112       11PY         0.85697  -1.63936
 113       11PZ        -1.09399  -1.30353
 114       12D 0       -0.01816   0.00237
 115       12D+1        0.00000   0.00000
 116       12D-1        0.00767  -0.00178
 117       12D+2        0.00323  -0.02311
 118       12D-2        0.00000   0.00000
 119       13D 0        0.07480   0.00699
 120       13D+1        0.00000   0.00000
 121       13D-1       -0.05037  -0.00554
 122       13D+2        0.02273   0.10107
 123       13D-2        0.00000   0.00000
 124       14D 0        0.28549   0.12917
 125       14D+1        0.00000   0.00000
 126       14D-1        0.13831  -0.76065
 127       14D+2        0.47867   0.62825
 128       14D-2        0.00000   0.00000
 129       15F 0        0.00219  -0.01650
 130       15F+1        0.00000   0.00000
 131       15F-1        0.01424   0.00803
 132       15F+2        0.00078  -0.04132
 133       15F-2        0.00000   0.00000
 134       15F+3        0.00000   0.00000
 135       15F-3       -0.00243  -0.03425
 136       16F 0       -0.00118   0.05436
 137       16F+1        0.00000   0.00000
 138       16F-1       -0.01141  -0.02136
 139       16F+2        0.02015   0.13776
 140       16F-2        0.00000   0.00000
 141       16F+3        0.00000   0.00000
 142       16F-3        0.04990   0.11516
 143 4   Cl 1S          0.00770   0.00028
 144        2S          0.13200  -0.01703
 145        3S          0.31303  -0.00190
 146        4S         -0.09896   0.06901
 147        5S         -0.85607  -0.53073
 148        6S          4.58342 -10.25076
 149        7PX         0.00000   0.00000
 150        7PY         0.00533  -0.01044
 151        7PZ        -0.01727   0.00590
 152        8PX         0.00000   0.00000
 153        8PY         0.08596  -0.18116
 154        8PZ        -0.27085   0.10570
 155        9PX         0.00000   0.00000
 156        9PY        -0.01933   0.03698
 157        9PZ         0.06445  -0.02128
 158       10PX         0.00000   0.00000
 159       10PY         0.84400   2.85889
 160       10PZ         1.50549  -1.36347
 161       11PX         0.00000   0.00000
 162       11PY        -0.85697   1.63936
 163       11PZ        -1.09399  -1.30353
 164       12D 0       -0.01816   0.00237
 165       12D+1        0.00000   0.00000
 166       12D-1       -0.00767   0.00178
 167       12D+2        0.00323  -0.02311
 168       12D-2        0.00000   0.00000
 169       13D 0        0.07480   0.00699
 170       13D+1        0.00000   0.00000
 171       13D-1        0.05037   0.00554
 172       13D+2        0.02273   0.10107
 173       13D-2        0.00000   0.00000
 174       14D 0        0.28549   0.12917
 175       14D+1        0.00000   0.00000
 176       14D-1       -0.13831   0.76065
 177       14D+2        0.47867   0.62825
 178       14D-2        0.00000   0.00000
 179       15F 0        0.00219  -0.01650
 180       15F+1        0.00000   0.00000
 181       15F-1       -0.01424  -0.00803
 182       15F+2        0.00078  -0.04132
 183       15F-2        0.00000   0.00000
 184       15F+3        0.00000   0.00000
 185       15F-3        0.00243   0.03425
 186       16F 0       -0.00118   0.05436
 187       16F+1        0.00000   0.00000
 188       16F-1        0.01141   0.02136
 189       16F+2        0.02015   0.13776
 190       16F-2        0.00000   0.00000
 191       16F+3        0.00000   0.00000
 192       16F-3       -0.04990  -0.11516
          Condensed to atoms (all electrons):
              1          2          3          4
     1  O    8.042766   0.429453  -0.073105  -0.073105
     2  C    0.429453   4.973764   0.135846   0.135846
     3  Cl  -0.073105   0.135846  17.036354  -0.099554
     4  Cl  -0.073105   0.135846  -0.099554  17.036354
 Mulliken atomic charges:
              1
     1  O   -0.326009
     2  C    0.325090
     3  Cl   0.000459
     4  Cl   0.000459
 Sum of Mulliken atomic charges =   0.00000
 Mulliken charges with hydrogens summed into heavy atoms:
              1
     1  O   -0.326009
     2  C    0.325090
     3  Cl   0.000459
     4  Cl   0.000459
 Sum of Mulliken charges with hydrogens summed into heavy atoms =   0.00000
 Electronic spatial extent (au):  <R**2>=            614.0374
 Charge=              0.0000 electrons
 Dipole moment (field-independent basis, Debye):
    X=              0.0000    Y=              0.0000    Z=             -1.2965  Tot=              1.2965
 Quadrupole moment (field-independent basis, Debye-Ang):
   XX=            -35.1040   YY=            -34.3353   ZZ=            -36.2575
   XY=              0.0000   XZ=              0.0000   YZ=              0.0000
 Traceless Quadrupole moment (field-independent basis, Debye-Ang):
   XX=              0.1283   YY=              0.8969   ZZ=             -1.0253
   XY=              0.0000   XZ=              0.0000   YZ=              0.0000
 Octapole moment (field-independent basis, Debye-Ang**2):
  XXX=              0.0000  YYY=              0.0000  ZZZ=            105.8561  XYY=              0.0000
  XXY=              0.0000  XXZ=             35.9772  XZZ=              0.0000  YZZ=              0.0000
  YYZ=             29.5088  XYZ=              0.0000
 Hexadecapole moment (field-independent basis, Debye-Ang**3):
 XXXX=            -37.1544 YYYY=           -328.9198 ZZZZ=           -383.2235 XXXY=              0.0000
 XXXZ=              0.0000 YYYX=              0.0000 YYYZ=              0.0000 ZZZX=              0.0000
 ZZZY=              0.0000 XXYY=            -65.2170 XXZZ=            -71.1311 YYZZ=           -106.7398
 XXYZ=              0.0000 YYXZ=              0.0000 ZZXY=              0.0000
 N-N= 1.914073292433D+02 E-N=-2.837002454291D+03  KE= 1.032376112904D+03
 1\1\GINC-TRAPISTA\SP\RQCISD-FC\Aug-CC-pVTZ\C1Cl2O1\BRUNS\27-Nov-2021\0
 \\# qcisd/aug-cc-pvtz nosymm density=current output=wfn\\cl2co-wavefun
 ction\\0,1\O,0,0.,0.,0.693397\C,0,0.,0.,-0.494687\Cl,0,0.,-1.44687,-1.
 469805\Cl,0,0.,1.44687,-1.469805\\Version=EM64L-G09RevB.01\HF=-1031.80
 15547\MP2=-1032.582223\MP3=-1032.6007499\MP4D=-1032.6206602\MP4DQ=-103
 2.5980328\MP4SDQ=-1032.607218\QCISD=-1032.6054356\RMSD=5.104e-09\Dipol
 e=0.,0.,-0.5100936\Quadrupole=0.0953962,0.6668572,-0.7622534,0.,0.,0.\
 PG=C02V [C2(C1O1),SGV(Cl2)]\\@

 Writing a WFN file to GAUSSIAN.wfn.


 GARLIC THEN HAVE POWER TO SAVE FROM DEATH
 BEAR WITH IT THOUGH IT MAKETH UNSAVORY BREATH,
 AND SCORN NOT GARLIC LIKE SOME THAT THINK
 IT ONLY MAKETH MEN WINK AND DRINK AND STINK.
   --  SIR JOHN HARRINGTON,
       "THE ENGLISHMAN'S DOCTOR", 1609
 Job cpu time:  0 days  2 hours  3 minutes  0.8 seconds.
 File lengths (MBytes):  RWF=  18183 Int=      0 D2E=      0 Chk=      3 Scr=      1
 Normal termination of Gaussian 09 at Sat Nov 27 12:06:02 2021.
