 cl2co-wavefunction
GAUSSIAN            192 MOL ORBITALS    372 PRIMITIVES        4 NUCLEI
  O    1    (CENTRE  1)   0.00000000  0.00000000  1.29143317  CHARGE =  8.0
  C    2    (CENTRE  2)   0.00000000  0.00000000 -0.93482295  CHARGE =  6.0
  Cl   3    (CENTRE  3)  -0.01889726 -2.73418805 -2.77752892  CHARGE = 17.0
  Cl   4    (CENTRE  4)   0.00000000  2.73418805 -2.77752892  CHARGE = 17.0
CENTRE ASSIGNMENTS    1  1  1  1  1  1  1  1  1  1  1  1  1  1  1  1  1  1  1  1
CENTRE ASSIGNMENTS    1  1  1  1  1  1  1  1  1  1  1  1  1  1  1  1  1  1  1  1
CENTRE ASSIGNMENTS    1  1  1  1  1  1  1  1  1  1  1  1  1  1  1  1  1  1  1  1
CENTRE ASSIGNMENTS    1  1  1  1  1  1  1  1  1  1  1  1  2  2  2  2  2  2  2  2
CENTRE ASSIGNMENTS    2  2  2  2  2  2  2  2  2  2  2  2  2  2  2  2  2  2  2  2
CENTRE ASSIGNMENTS    2  2  2  2  2  2  2  2  2  2  2  2  2  2  2  2  2  2  2  2
CENTRE ASSIGNMENTS    2  2  2  2  2  2  2  2  2  2  2  2  2  2  2  2  2  2  2  2
CENTRE ASSIGNMENTS    2  2  2  2  3  3  3  3  3  3  3  3  3  3  3  3  3  3  3  3
CENTRE ASSIGNMENTS    3  3  3  3  3  3  3  3  3  3  3  3  3  3  3  3  3  3  3  3
CENTRE ASSIGNMENTS    3  3  3  3  3  3  3  3  3  3  3  3  3  3  3  3  3  3  3  3
CENTRE ASSIGNMENTS    3  3  3  3  3  3  3  3  3  3  3  3  3  3  3  3  3  3  3  3
CENTRE ASSIGNMENTS    3  3  3  3  3  3  3  3  3  3  3  3  3  3  3  3  3  3  3  3
CENTRE ASSIGNMENTS    3  3  3  3  3  3  3  3  3  3  3  3  3  3  3  3  3  3  4  4
CENTRE ASSIGNMENTS    4  4  4  4  4  4  4  4  4  4  4  4  4  4  4  4  4  4  4  4
CENTRE ASSIGNMENTS    4  4  4  4  4  4  4  4  4  4  4  4  4  4  4  4  4  4  4  4
CENTRE ASSIGNMENTS    4  4  4  4  4  4  4  4  4  4  4  4  4  4  4  4  4  4  4  4
CENTRE ASSIGNMENTS    4  4  4  4  4  4  4  4  4  4  4  4  4  4  4  4  4  4  4  4
CENTRE ASSIGNMENTS    4  4  4  4  4  4  4  4  4  4  4  4  4  4  4  4  4  4  4  4
CENTRE ASSIGNMENTS    4  4  4  4  4  4  4  4  4  4  4  4
TYPE ASSIGNMENTS      1  1  1  1  1  1  1  1  1  1  1  1  1  1  1  1  2  2  2  3
TYPE ASSIGNMENTS      3  3  4  4  4  2  3  4  2  3  4  2  3  4  5  6  7  8  9 10
TYPE ASSIGNMENTS      5  6  7  8  9 10  5  6  7  8  9 10 11 12 13 17 14 15 18 19
TYPE ASSIGNMENTS     16 20 11 12 13 17 14 15 18 19 16 20  1  1  1  1  1  1  1  1
TYPE ASSIGNMENTS      1  1  1  1  1  1  1  1  2  2  2  3  3  3  4  4  4  2  3  4
TYPE ASSIGNMENTS      2  3  4  2  3  4  5  6  7  8  9 10  5  6  7  8  9 10  5  6
TYPE ASSIGNMENTS      7  8  9 10 11 12 13 17 14 15 18 19 16 20 11 12 13 17 14 15
TYPE ASSIGNMENTS     18 19 16 20  1  1  1  1  1  1  1  1  1  1  1  1  1  1  1  1
TYPE ASSIGNMENTS      1  1  1  1  1  1  1  1  1  1  1  1  1  1  1  2  2  2  2  2
TYPE ASSIGNMENTS      2  3  3  3  3  3  3  4  4  4  4  4  4  2  2  2  2  2  2  3
TYPE ASSIGNMENTS      3  3  3  3  3  4  4  4  4  4  4  2  3  4  2  3  4  2  3  4
TYPE ASSIGNMENTS      5  6  7  8  9 10  5  6  7  8  9 10  5  6  7  8  9 10 11 12
TYPE ASSIGNMENTS     13 17 14 15 18 19 16 20 11 12 13 17 14 15 18 19 16 20  1  1
TYPE ASSIGNMENTS      1  1  1  1  1  1  1  1  1  1  1  1  1  1  1  1  1  1  1  1
TYPE ASSIGNMENTS      1  1  1  1  1  1  1  1  1  2  2  2  2  2  2  3  3  3  3  3
TYPE ASSIGNMENTS      3  4  4  4  4  4  4  2  2  2  2  2  2  3  3  3  3  3  3  4
TYPE ASSIGNMENTS      4  4  4  4  4  2  3  4  2  3  4  2  3  4  5  6  7  8  9 10
TYPE ASSIGNMENTS      5  6  7  8  9 10  5  6  7  8  9 10 11 12 13 17 14 15 18 19
TYPE ASSIGNMENTS     16 20 11 12 13 17 14 15 18 19 16 20
EXPONENTS  0.1533000D+05 0.2299000D+04 0.5224000D+03 0.1473000D+03 0.4755000D+02
EXPONENTS  0.1676000D+02 0.6207000D+01 0.5224000D+03 0.1473000D+03 0.4755000D+02
EXPONENTS  0.1676000D+02 0.6207000D+01 0.6882000D+00 0.1752000D+01 0.2384000D+00
EXPONENTS  0.7376000D-01 0.3446000D+02 0.7749000D+01 0.2280000D+01 0.3446000D+02
EXPONENTS  0.7749000D+01 0.2280000D+01 0.3446000D+02 0.7749000D+01 0.2280000D+01
EXPONENTS  0.7156000D+00 0.7156000D+00 0.7156000D+00 0.2140000D+00 0.2140000D+00
EXPONENTS  0.2140000D+00 0.5974000D-01 0.5974000D-01 0.5974000D-01 0.2314000D+01
EXPONENTS  0.2314000D+01 0.2314000D+01 0.2314000D+01 0.2314000D+01 0.2314000D+01
EXPONENTS  0.6450000D+00 0.6450000D+00 0.6450000D+00 0.6450000D+00 0.6450000D+00
EXPONENTS  0.6450000D+00 0.2140000D+00 0.2140000D+00 0.2140000D+00 0.2140000D+00
EXPONENTS  0.2140000D+00 0.2140000D+00 0.1428000D+01 0.1428000D+01 0.1428000D+01
EXPONENTS  0.1428000D+01 0.1428000D+01 0.1428000D+01 0.1428000D+01 0.1428000D+01
EXPONENTS  0.1428000D+01 0.1428000D+01 0.5000000D+00 0.5000000D+00 0.5000000D+00
EXPONENTS  0.5000000D+00 0.5000000D+00 0.5000000D+00 0.5000000D+00 0.5000000D+00
EXPONENTS  0.5000000D+00 0.5000000D+00 0.8236000D+04 0.1235000D+04 0.2808000D+03
EXPONENTS  0.7927000D+02 0.2559000D+02 0.8997000D+01 0.3319000D+01 0.2808000D+03
EXPONENTS  0.7927000D+02 0.2559000D+02 0.8997000D+01 0.3319000D+01 0.3643000D+00
EXPONENTS  0.9059000D+00 0.1285000D+00 0.4402000D-01 0.1871000D+02 0.4133000D+01
EXPONENTS  0.1200000D+01 0.1871000D+02 0.4133000D+01 0.1200000D+01 0.1871000D+02
EXPONENTS  0.4133000D+01 0.1200000D+01 0.3827000D+00 0.3827000D+00 0.3827000D+00
EXPONENTS  0.1209000D+00 0.1209000D+00 0.1209000D+00 0.3569000D-01 0.3569000D-01
EXPONENTS  0.3569000D-01 0.1097000D+01 0.1097000D+01 0.1097000D+01 0.1097000D+01
EXPONENTS  0.1097000D+01 0.1097000D+01 0.3180000D+00 0.3180000D+00 0.3180000D+00
EXPONENTS  0.3180000D+00 0.3180000D+00 0.3180000D+00 0.1000000D+00 0.1000000D+00
EXPONENTS  0.1000000D+00 0.1000000D+00 0.1000000D+00 0.1000000D+00 0.7610000D+00
EXPONENTS  0.7610000D+00 0.7610000D+00 0.7610000D+00 0.7610000D+00 0.7610000D+00
EXPONENTS  0.7610000D+00 0.7610000D+00 0.7610000D+00 0.7610000D+00 0.2680000D+00
EXPONENTS  0.2680000D+00 0.2680000D+00 0.2680000D+00 0.2680000D+00 0.2680000D+00
EXPONENTS  0.2680000D+00 0.2680000D+00 0.2680000D+00 0.2680000D+00 0.4561000D+06
EXPONENTS  0.6833000D+05 0.1555000D+05 0.4405000D+04 0.1439000D+04 0.5204000D+03
EXPONENTS  0.2031000D+03 0.8396000D+02 0.3620000D+02 0.1583000D+02 0.6334000D+01
EXPONENTS  0.4405000D+04 0.1439000D+04 0.5204000D+03 0.2031000D+03 0.8396000D+02
EXPONENTS  0.3620000D+02 0.1583000D+02 0.6334000D+01 0.2694000D+01 0.1439000D+04
EXPONENTS  0.2031000D+03 0.8396000D+02 0.3620000D+02 0.1583000D+02 0.6334000D+01
EXPONENTS  0.2694000D+01 0.4313000D+00 0.9768000D+00 0.1625000D+00 0.5910000D-01
EXPONENTS  0.6633000D+03 0.1568000D+03 0.4998000D+02 0.1842000D+02 0.7240000D+01
EXPONENTS  0.2922000D+01 0.6633000D+03 0.1568000D+03 0.4998000D+02 0.1842000D+02
EXPONENTS  0.7240000D+01 0.2922000D+01 0.6633000D+03 0.1568000D+03 0.4998000D+02
EXPONENTS  0.1842000D+02 0.7240000D+01 0.2922000D+01 0.1568000D+03 0.4998000D+02
EXPONENTS  0.1842000D+02 0.7240000D+01 0.2922000D+01 0.3818000D+00 0.1568000D+03
EXPONENTS  0.4998000D+02 0.1842000D+02 0.7240000D+01 0.2922000D+01 0.3818000D+00
EXPONENTS  0.1568000D+03 0.4998000D+02 0.1842000D+02 0.7240000D+01 0.2922000D+01
EXPONENTS  0.3818000D+00 0.1022000D+01 0.1022000D+01 0.1022000D+01 0.1301000D+00
EXPONENTS  0.1301000D+00 0.1301000D+00 0.4190000D-01 0.4190000D-01 0.4190000D-01
EXPONENTS  0.1046000D+01 0.1046000D+01 0.1046000D+01 0.1046000D+01 0.1046000D+01
EXPONENTS  0.1046000D+01 0.3440000D+00 0.3440000D+00 0.3440000D+00 0.3440000D+00
EXPONENTS  0.3440000D+00 0.3440000D+00 0.1350000D+00 0.1350000D+00 0.1350000D+00
EXPONENTS  0.1350000D+00 0.1350000D+00 0.1350000D+00 0.7060000D+00 0.7060000D+00
EXPONENTS  0.7060000D+00 0.7060000D+00 0.7060000D+00 0.7060000D+00 0.7060000D+00
EXPONENTS  0.7060000D+00 0.7060000D+00 0.7060000D+00 0.3120000D+00 0.3120000D+00
EXPONENTS  0.3120000D+00 0.3120000D+00 0.3120000D+00 0.3120000D+00 0.3120000D+00
EXPONENTS  0.3120000D+00 0.3120000D+00 0.3120000D+00 0.4561000D+06 0.6833000D+05
EXPONENTS  0.1555000D+05 0.4405000D+04 0.1439000D+04 0.5204000D+03 0.2031000D+03
EXPONENTS  0.8396000D+02 0.3620000D+02 0.1583000D+02 0.6334000D+01 0.4405000D+04
EXPONENTS  0.1439000D+04 0.5204000D+03 0.2031000D+03 0.8396000D+02 0.3620000D+02
EXPONENTS  0.1583000D+02 0.6334000D+01 0.2694000D+01 0.1439000D+04 0.2031000D+03
EXPONENTS  0.8396000D+02 0.3620000D+02 0.1583000D+02 0.6334000D+01 0.2694000D+01
EXPONENTS  0.4313000D+00 0.9768000D+00 0.1625000D+00 0.5910000D-01 0.6633000D+03
EXPONENTS  0.1568000D+03 0.4998000D+02 0.1842000D+02 0.7240000D+01 0.2922000D+01
EXPONENTS  0.6633000D+03 0.1568000D+03 0.4998000D+02 0.1842000D+02 0.7240000D+01
EXPONENTS  0.2922000D+01 0.6633000D+03 0.1568000D+03 0.4998000D+02 0.1842000D+02
EXPONENTS  0.7240000D+01 0.2922000D+01 0.1568000D+03 0.4998000D+02 0.1842000D+02
EXPONENTS  0.7240000D+01 0.2922000D+01 0.3818000D+00 0.1568000D+03 0.4998000D+02
EXPONENTS  0.1842000D+02 0.7240000D+01 0.2922000D+01 0.3818000D+00 0.1568000D+03
EXPONENTS  0.4998000D+02 0.1842000D+02 0.7240000D+01 0.2922000D+01 0.3818000D+00
EXPONENTS  0.1022000D+01 0.1022000D+01 0.1022000D+01 0.1301000D+00 0.1301000D+00
EXPONENTS  0.1301000D+00 0.4190000D-01 0.4190000D-01 0.4190000D-01 0.1046000D+01
EXPONENTS  0.1046000D+01 0.1046000D+01 0.1046000D+01 0.1046000D+01 0.1046000D+01
EXPONENTS  0.3440000D+00 0.3440000D+00 0.3440000D+00 0.3440000D+00 0.3440000D+00
EXPONENTS  0.3440000D+00 0.1350000D+00 0.1350000D+00 0.1350000D+00 0.1350000D+00
EXPONENTS  0.1350000D+00 0.1350000D+00 0.7060000D+00 0.7060000D+00 0.7060000D+00
EXPONENTS  0.7060000D+00 0.7060000D+00 0.7060000D+00 0.7060000D+00 0.7060000D+00
EXPONENTS  0.7060000D+00 0.7060000D+00 0.3120000D+00 0.3120000D+00 0.3120000D+00
EXPONENTS  0.3120000D+00 0.3120000D+00 0.3120000D+00 0.3120000D+00 0.3120000D+00
EXPONENTS  0.3120000D+00 0.3120000D+00
MO    1     MO 0.0        OCC NO =    2.0000387  ORB. ENERGY =    0.000000
 -0.11046674D-05 -0.20589184D-05 -0.34911854D-05 -0.52835379D-05 -0.65907971D-05
 -0.56558844D-05 -0.21659033D-05 -0.19838073D-09 -0.21284950D-08 -0.78460334D-08
 -0.22941341D-07 -0.27645432D-07  0.33301852D-07 -0.10477644D-06 -0.11772715D-07
 -0.47546020D-07  0.30280889D-05  0.29362277D-05  0.19807618D-05  0.87626711D-03
  0.84968434D-03  0.57319203D-03 -0.28867073D-06 -0.27991350D-06 -0.18882799D-06
  0.32549341D-05  0.94198299D-03 -0.13010711D-06  0.26256510D-05  0.75997334D-03
 -0.10697457D-06  0.68543530D-07  0.19846346D-04 -0.19373421D-08 -0.50531231D-07
  0.63766296D-07 -0.13235065D-07 -0.72290831D-05  0.69221973D-06  0.20042985D-03
  0.29315661D-07 -0.62480020D-07  0.33164360D-07  0.43792476D-05  0.24432588D-06
  0.70668155D-04 -0.77670878D-08 -0.84901067D-08  0.16257195D-07  0.13223403D-05
 -0.38749239D-06 -0.11215487D-03 -0.76848714D-06  0.14729877D-03 -0.88659035D-08
  0.30639469D-05 -0.22239399D-03  0.30830598D-07 -0.75848551D-06 -0.21950232D-03
 -0.42328878D-08  0.81659339D-05  0.69274019D-06  0.10266874D-04 -0.44579731D-08
 -0.12791065D-05  0.20048005D-03 -0.24653906D-07 -0.79911405D-06 -0.23128067D-03
  0.38027825D-07 -0.50211728D-05  0.68275092D-06  0.12727853D-05  0.21511805D-05
  0.32336255D-05  0.39719297D-05  0.33521686D-05  0.12605029D-05  0.77280476D-09
  0.57762368D-08  0.21587116D-07  0.60224692D-07  0.80684483D-07 -0.95273330D-07
  0.19586405D-07 -0.12014830D-08 -0.16569877D-07 -0.38316862D-05 -0.35924493D-05
 -0.25580379D-05 -0.11087652D-02 -0.10395379D-02 -0.74021289D-03 -0.22137330D-06
 -0.20755154D-06 -0.14778906D-06 -0.49756578D-06 -0.14393670D-03 -0.17625859D-06
 -0.24763244D-06 -0.71702462D-04  0.45075479D-07  0.30214085D-07  0.87400988D-05
  0.35185128D-08  0.12212764D-07 -0.14693942D-06  0.13472665D-06 -0.46228609D-06
 -0.63568563D-06 -0.18403702D-03 -0.19670059D-07  0.62508751D-07 -0.42838692D-07
 -0.12911035D-05 -0.25727291D-06 -0.74517980D-04  0.53066721D-09 -0.19959804D-07
  0.19429137D-07  0.76221331D-07 -0.18880124D-06 -0.54664814D-04 -0.12852824D-06
 -0.25495163D-03 -0.30904163D-07 -0.23857602D-05 -0.37237933D-04  0.46319219D-07
  0.27713449D-05  0.80209283D-03  0.46393270D-07  0.94906104D-06 -0.94087364D-07
  0.25893178D-03  0.16266616D-07  0.28722229D-05 -0.27206798D-04 -0.34093001D-07
 -0.25899608D-05 -0.74958856D-03 -0.14706848D-07 -0.43511520D-05  0.27089695D-03
  0.50681929D-03  0.87567131D-03  0.14195661D-02  0.21557473D-02  0.29962860D-02
  0.35623544D-02  0.31734691D-02  0.15760119D-02  0.25372458D-03  0.26769441D-05
  0.15765309D-05  0.52590433D-04  0.18326713D-03  0.65997460D-03  0.14548319D-02
  0.20479337D-02 -0.97693114D-04 -0.26800769D-02 -0.15847127D-02 -0.27584226D-06
 -0.33411234D-05 -0.69675605D-05 -0.19981751D-04 -0.10376245D-05  0.86170999D-04
  0.22264931D-03 -0.18140418D-03 -0.81654457D-04  0.10099005D-03  0.57207565D-04
  0.70433624D-02  0.92777560D-02  0.10234817D-01  0.85008170D-02  0.45141697D-02
  0.11646794D-02  0.46631350D+01  0.61424397D+01  0.67760725D+01  0.56280588D+01
  0.29886554D+01  0.77108871D+00 -0.67677498D+01 -0.89147096D+01 -0.98343202D+01
 -0.81681729D+01 -0.43375265D+01 -0.11191045D+01 -0.35233949D-06  0.34061915D-05
  0.48030855D-05  0.68696829D-05 -0.34787107D-07 -0.63001471D-05 -0.23740180D-03
  0.22950479D-02  0.32362571D-02  0.46287037D-02 -0.23439104D-04 -0.42449579D-02
  0.33421808D-03 -0.32310053D-02 -0.45560548D-02 -0.65163636D-02  0.32997948D-04
  0.59761200D-02  0.44429904D-04  0.29928560D-01 -0.43657509D-01  0.31683224D-07
 -0.34404284D-03  0.55701775D-03  0.66479828D-08 -0.10940135D-04  0.17205500D-04
  0.14427338D-04  0.74744696D-03 -0.76187429D-03  0.59176743D-05 -0.89019101D-05
 -0.68702878D-03 -0.58532225D-04 -0.43204666D-03  0.49057888D-03 -0.31529629D-05
  0.56790471D-05  0.35220540D-03 -0.47700631D-05  0.18131376D-05  0.29569255D-05
  0.73861982D-07  0.23879877D-06  0.48971712D-05 -0.16925278D-06  0.13860773D-04
  0.26191169D-05  0.10135923D-05 -0.18504205D-04 -0.37023744D-04 -0.50583400D-06
 -0.23078114D-04  0.29166394D-04  0.47754308D-06 -0.21010148D-06 -0.75051599D-04
  0.42087125D-04 -0.17474567D-05 -0.11424990D-04 -0.51363493D-04  0.23777612D-05
  0.23657979D-03 -0.74897882D-04  0.16505827D-05 -0.27003454D-03 -0.50520581D-03
 -0.87288358D-03 -0.14150469D-02 -0.21488844D-02 -0.29867472D-02 -0.35510135D-02
 -0.31633662D-02 -0.15709946D-02 -0.25291684D-03 -0.26684220D-05 -0.15723955D-05
 -0.52452482D-04 -0.18278640D-03 -0.65824341D-03 -0.14510157D-02 -0.20425618D-02
  0.97436853D-04  0.26730468D-02  0.15805558D-02  0.27586744D-06  0.33414283D-05
  0.69681965D-05  0.19983574D-04  0.10377192D-05 -0.86178864D-04 -0.22266963D-03
  0.18142074D-03  0.81455703D-04 -0.10093058D-03 -0.57150349D-04  0.25192610D-01
  0.33184560D-01  0.36607765D-01  0.30405615D-01  0.16146225D-01  0.41658105D-02
  0.46645346D+01  0.61442833D+01  0.67781063D+01  0.56297480D+01  0.29895524D+01
  0.77132014D+00  0.67701853D+01  0.89179179D+01  0.98378594D+01  0.81711125D+01
  0.43390875D+01  0.11195072D+01 -0.12887902D-05  0.12459194D-04  0.17568765D-04
  0.25127981D-04 -0.12724456D-06 -0.23044729D-04 -0.23746295D-03  0.22956390D-02
  0.32370906D-02  0.46298959D-02 -0.23445141D-04 -0.42460512D-02 -0.33433710D-03
  0.32321560D-02  0.45576774D-02  0.65186843D-02 -0.33009700D-04 -0.59782483D-02
  0.16246511D-03  0.29937555D-01  0.43673303D-01 -0.24094792D-05 -0.34409603D-03
 -0.55710368D-03 -0.82258453D-07 -0.10943642D-04 -0.17207288D-04 -0.14430444D-04
 -0.74761600D-03  0.76204644D-03 -0.42153929D-05  0.41540388D-05 -0.68719868D-03
  0.58534469D-04  0.43216708D-03 -0.49070154D-03  0.20109511D-05 -0.32449676D-05
  0.35240476D-03  0.47713046D-05 -0.18260790D-05 -0.29452256D-05 -0.17235173D-07
 -0.20479465D-06  0.48944844D-05  0.41429012D-07  0.13851393D-04 -0.26235147D-05
 -0.47039673D-06 -0.18500093D-04  0.37027967D-04  0.34610970D-06 -0.23054085D-04
 -0.29157423D-04 -0.43702330D-06  0.13119930D-06 -0.75076697D-04 -0.42085189D-04
  0.34886229D-06 -0.11411398D-04  0.51392181D-04 -0.74246020D-06  0.23664149D-03
  0.74863387D-04  0.19755788D-05
MO    2     MO 0.0        OCC NO =    2.0000377  ORB. ENERGY =    0.000000
  0.55202152D-02  0.10288773D-01  0.17446061D-01  0.26402758D-01  0.32935360D-01
  0.28263439D-01  0.10823396D-01  0.87472968D-06  0.93852755D-05  0.34595893D-04
  0.10115636D-03  0.12189833D-03 -0.14683946D-03  0.54198339D-03  0.20354607D-03
  0.29995745D-03  0.11612929D-06  0.11260635D-06  0.75963580D-07  0.39884704D-07
  0.38674747D-07  0.26089756D-07  0.15917311D-02  0.15434438D-02  0.10411980D-02
  0.15832535D-05  0.13111891D-06  0.58575874D-03  0.35436772D-05  0.10649897D-06
  0.49680673D-03  0.26444673D-06  0.26957207D-08  0.10501818D-04  0.13188486D-03
 -0.21759951D-03  0.85714652D-04 -0.24166254D-05  0.29650237D-05  0.30668213D-07
 -0.76429472D-04  0.24751961D-03 -0.17109014D-03  0.22396635D-05 -0.12816579D-05
 -0.42014583D-09  0.58110636D-04  0.22129252D-04 -0.80239887D-04 -0.24845933D-06
 -0.54712192D-06 -0.14004481D-07 -0.43516778D-06  0.15767355D-07  0.32966418D-04
  0.14844435D-05 -0.34307325D-07 -0.37569142D-04 -0.17894011D-06 -0.12994740D-07
 -0.61330113D-04 -0.16276731D-06  0.35823828D-06  0.25978112D-08  0.34714215D-04
 -0.62724741D-06  0.26509135D-07  0.32389453D-04 -0.44746743D-06 -0.34302568D-07
 -0.13653210D-03 -0.11683439D-05 -0.38865770D-02 -0.72453625D-02 -0.12245650D-01
 -0.18407496D-01 -0.22610311D-01 -0.19082305D-01 -0.71754451D-02 -0.41660061D-05
 -0.31138315D-04 -0.11637099D-03 -0.32465695D-03 -0.43495080D-03  0.51359579D-03
 -0.10465934D-03 -0.12406567D-04  0.85663150D-04  0.48402885D-06  0.45380781D-06
  0.32313820D-06 -0.97814553D-07 -0.91707361D-07 -0.65301104D-07  0.97959664D-03
  0.91843411D-03  0.65397980D-03  0.38945651D-06 -0.37757780D-07  0.82768374D-03
 -0.78892448D-06  0.24487707D-08 -0.20428336D-03 -0.73955121D-07  0.20039973D-08
 -0.21912359D-04 -0.68408985D-04  0.68317181D-03 -0.61476283D-03  0.51943680D-05
 -0.12647541D-05 -0.39546578D-07  0.82278225D-04 -0.16596932D-03  0.83691096D-04
 -0.17158938D-05 -0.20779570D-05 -0.99709160D-08 -0.12936438D-06  0.11551900D-03
 -0.11538963D-03  0.79931453D-06 -0.69175553D-06 -0.97875622D-08 -0.58063491D-06
 -0.36075705D-07  0.13660505D-03 -0.35934660D-06  0.32079615D-09 -0.17573437D-03
  0.21012513D-05  0.10790632D-06 -0.23408079D-03 -0.40310113D-06  0.23544913D-06
  0.37225985D-07 -0.68571251D-04  0.12952841D-05  0.67050530D-09  0.94796072D-04
 -0.20016315D-05 -0.11234846D-06  0.11091768D-03  0.11070269D-06 -0.14773697D-02
 -0.27640010D-02 -0.47755807D-02 -0.77417774D-02 -0.11756632D-01 -0.16340612D-01
 -0.19427736D-01 -0.17306902D-01 -0.85949735D-02 -0.13837180D-02 -0.14599042D-04
 -0.72293279D-05 -0.24115828D-03 -0.84038831D-03 -0.30263744D-02 -0.66712657D-02
 -0.93909890D-02  0.44798078D-03  0.12289740D-01  0.72668463D-02  0.91792794D-07
  0.11118349D-05  0.23186145D-05  0.66493826D-05  0.34529318D-06 -0.28675363D-04
 -0.74091630D-04  0.60366373D-04  0.32810232D-03 -0.19061249D-03 -0.16750382D-03
  0.70062381D-02  0.92288545D-02  0.10180871D-01  0.84560106D-02  0.44903763D-02
  0.11585406D-02  0.41046516D+01  0.54067864D+01  0.59645317D+01  0.49540106D+01
  0.26307171D+01  0.67873876D+00 -0.71192067D+01 -0.93776607D+01 -0.10345028D+02
 -0.85923554D+01 -0.45627792D+01 -0.11772209D+01 -0.22441835D-06  0.21695322D-05
  0.30592669D-05  0.43755610D-05 -0.22157225D-07 -0.40128021D-05 -0.17590455D-03
  0.17005320D-02  0.23979276D-02  0.34296708D-02 -0.17367370D-04 -0.31453316D-02
  0.33303718D-03 -0.32195892D-02 -0.45399569D-02 -0.64933393D-02  0.32881356D-04
  0.59550045D-02  0.43664940D-04  0.26404998D-01 -0.46095496D-01 -0.12500257D-05
 -0.16705261D-03  0.22051609D-03 -0.73389362D-07 -0.11655626D-04  0.71545615D-05
  0.22330136D-04  0.42866116D-03 -0.45099129D-03  0.42768246D-05 -0.43635750D-05
 -0.39956111D-03  0.47063844D-05 -0.27393063D-03  0.26922424D-03 -0.17927323D-05
  0.32396194D-05  0.44941356D-03 -0.66259406D-06  0.38074291D-04 -0.37411697D-04
  0.27477864D-06 -0.57073467D-06 -0.16764521D-04  0.10723182D-06 -0.32795579D-04
  0.10025973D-04 -0.10657060D-05  0.51254444D-04  0.52353097D-05  0.74401057D-06
  0.47132292D-04 -0.35313229D-04  0.15472621D-06  0.48080240D-07 -0.48118462D-04
 -0.13478523D-04 -0.51277801D-06  0.14143509D-04 -0.40036093D-04  0.36853729D-06
  0.13021188D-03  0.80471664D-04  0.11596054D-05 -0.14779652D-02 -0.27651153D-02
 -0.47775058D-02 -0.77448983D-02 -0.11761371D-01 -0.16347199D-01 -0.19435568D-01
 -0.17313879D-01 -0.85984384D-02 -0.13842758D-02 -0.14604928D-04 -0.72322086D-05
 -0.24125437D-03 -0.84072319D-03 -0.30275803D-02 -0.66739241D-02 -0.93947311D-02
  0.44815929D-03  0.12294637D-01  0.72697420D-02  0.91822580D-07  0.11121957D-05
  0.23193668D-05  0.66515403D-05  0.34540522D-06 -0.28684668D-04 -0.74115672D-04
  0.60385961D-04  0.32827255D-03 -0.19066877D-03 -0.16753047D-03 -0.21353382D-01
 -0.28127399D-01 -0.31028924D-01 -0.25771951D-01 -0.13685621D-01 -0.35309617D-02
 -0.41030345D+01 -0.54046562D+01 -0.59621819D+01 -0.49520589D+01 -0.26296807D+01
 -0.67847136D+00 -0.71168360D+01 -0.93745378D+01 -0.10341583D+02 -0.85894941D+01
 -0.45612597D+01 -0.11768289D+01  0.99086562D-06 -0.95790513D-05 -0.13507462D-04
 -0.19319244D-04  0.97829933D-07  0.17717569D-04  0.17582438D-03 -0.16997570D-02
 -0.23968348D-02 -0.34281077D-02  0.17359455D-04  0.31438981D-02  0.33292332D-03
 -0.32184885D-02 -0.45384047D-02 -0.64911193D-02  0.32870114D-04  0.59529686D-02
 -0.13877075D-03 -0.26394596D-01 -0.46080221D-01 -0.96365259D-07  0.16693876D-03
  0.22031879D-03  0.71350018D-08  0.11651792D-04  0.71475778D-05  0.22315757D-04
  0.42842959D-03 -0.45074535D-03  0.13384739D-05 -0.16005549D-05  0.39932691D-03
  0.47232787D-05 -0.27380073D-03  0.26907745D-03 -0.20582001D-05  0.13240621D-06
 -0.44931797D-03 -0.66167803D-06  0.38074197D-04 -0.37412518D-04  0.26067689D-06
 -0.45493986D-06  0.16766198D-04 -0.24702620D-06  0.32804285D-04  0.10025532D-04
  0.32271506D-06 -0.51266319D-04  0.52448863D-05  0.41836355D-06 -0.47146537D-04
 -0.35321484D-04 -0.71534966D-06 -0.49632822D-07  0.48095406D-04 -0.13491380D-04
  0.68056749D-06 -0.14145516D-04 -0.40023750D-04 -0.53166902D-06 -0.13014070D-03
  0.80497890D-04  0.50686628D-06
MO    3     MO 0.0        OCC NO =    2.0000335  ORB. ENERGY =    0.000000
  0.14308193D-08  0.26668120D-08  0.45219545D-08  0.68434973D-08  0.85367234D-08
  0.73257788D-08  0.28053841D-08  0.61741552D-12  0.66244633D-11  0.24419019D-10
  0.71399780D-10  0.86040206D-10 -0.10364455D-09  0.10048270D-09 -0.18294218D-09
 -0.58080667D-10  0.10150692D-06  0.98427567D-07  0.66398655D-07 -0.67700146D-05
 -0.65646369D-05 -0.44284653D-05 -0.57107258D-10 -0.55374830D-10 -0.37355533D-10
  0.29851150D-07 -0.19441570D-05  0.13845276D-09 -0.11000603D-07 -0.74837055D-05
  0.83418004D-10 -0.19104462D-08 -0.74477476D-06  0.13875814D-11 -0.39822943D-06
  0.39823158D-06 -0.21476003D-11 -0.11525206D-03  0.10170939D-08 -0.66167687D-05
 -0.11507961D-06  0.11511514D-06 -0.35528372D-10 -0.33298233D-04 -0.30919981D-09
  0.34079661D-05  0.54836536D-06 -0.54835021D-06 -0.15150769D-10  0.15868513D-03
  0.72717058D-09  0.16885084D-05 -0.11892493D-07  0.11008293D-05  0.20328030D-10
  0.47336793D-07 -0.39744966D-05  0.27006782D-05 -0.11659313D-07  0.67200862D-06
 -0.27007392D-05  0.78152727D-03  0.38861590D-08 -0.32697971D-06  0.36087715D-11
 -0.18012715D-07  0.14458554D-05 -0.84008946D-06  0.63542383D-08 -0.46491625D-06
  0.84007863D-06 -0.24310524D-03 -0.59324170D-08 -0.11059220D-07 -0.18691589D-07
 -0.28096945D-07 -0.34512064D-07 -0.29126965D-07 -0.10952499D-07 -0.13288431D-11
 -0.99322789D-11 -0.37119194D-10 -0.10355677D-09 -0.13873752D-09  0.16382315D-09
 -0.46073792D-09  0.17785546D-09  0.12889754D-10 -0.12751606D-06 -0.11955441D-06
 -0.85129863D-07  0.90091632D-05  0.84466631D-05  0.60145273D-05 -0.21499832D-09
 -0.20157459D-09 -0.14353312D-09 -0.25771802D-07  0.70937327D-06  0.17455619D-09
  0.16581740D-07  0.52827668D-05 -0.41453580D-10  0.14221232D-08  0.47481575D-06
  0.24686704D-11 -0.41588048D-05  0.41588648D-05 -0.60038812D-10 -0.12034898D-02
  0.39181026D-07 -0.31039734D-06  0.15856651D-06 -0.15864589D-06  0.79379250D-10
  0.45906123D-04 -0.27701628D-08  0.56216428D-05 -0.24979264D-06  0.24977703D-06
  0.15610656D-10 -0.72283754D-04  0.35845690D-08  0.11277541D-05  0.11700620D-07
 -0.42141760D-06  0.46325527D-10 -0.19981764D-07  0.17998810D-05  0.12107615D-05
 -0.15120095D-07 -0.53562820D-06 -0.12109005D-05  0.35038846D-03 -0.72620448D-08
 -0.45682713D-07 -0.32781993D-11  0.13694598D-07 -0.15561046D-05 -0.12262502D-05
  0.80915367D-08  0.16931528D-05  0.12262600D-05 -0.35486498D-03  0.55031700D-04
  0.10295844D-03  0.17788935D-03  0.28837953D-03  0.43793199D-03  0.60868426D-03
  0.72367895D-03  0.64467835D-03  0.32016090D-03  0.51543197D-04  0.54381117D-06
  0.25754339D-06  0.85912164D-05  0.29938669D-04  0.10781400D-03  0.23766254D-03
  0.33455215D-03 -0.15959228D-04 -0.43781958D-03 -0.25887998D-03  0.49368580D-08
  0.59797406D-07  0.12470119D-06  0.35762129D-06  0.18570776D-07 -0.15422365D-05
 -0.39848428D-05  0.32466624D-05 -0.14740655D-04  0.69819494D-06  0.22054943D-05
 -0.82138987D+01 -0.10819626D+02 -0.11935741D+02 -0.99135676D+01 -0.52643795D+01
 -0.13582374D+01  0.54525295D-01  0.71822569D-01  0.79231536D-01  0.65807994D-01
  0.34945871D-01  0.90162174D-02  0.29027055D-01  0.38235422D-01  0.42179656D-01
  0.35033507D-01  0.18603764D-01  0.47998684D-02  0.35885252D-03 -0.34691552D-02
 -0.48918710D-02 -0.69966696D-02  0.35430150D-04  0.64166059D-02 -0.24764471D-05
  0.23940697D-04  0.33758882D-04  0.48284132D-04 -0.24450405D-06 -0.44281103D-04
 -0.13566037D-05  0.13114771D-04  0.18493196D-04  0.26450163D-04 -0.13393990D-06
 -0.24257294D-04 -0.53686652D-01  0.35904158D-03  0.19221088D-03  0.42411188D-03
 -0.24313104D-05  0.21146942D-06  0.15167397D-04 -0.14228086D-06  0.46577282D-07
 -0.66308917D-05  0.55806828D-05  0.10502089D-05 -0.90720793D-03 -0.51073908D-03
  0.48313395D-05  0.39013154D-05 -0.30873688D-05 -0.81394664D-06  0.47172301D-03
  0.31781762D-03 -0.48977291D-05 -0.30850839D-06 -0.38704510D-07  0.34721290D-06
 -0.21548381D-04 -0.36869968D-04  0.43716761D-06 -0.22742350D-04  0.52353487D-06
 -0.45581539D-06 -0.41981270D-04 -0.61791523D-06  0.11136796D-05  0.11020832D-03
 -0.95268937D-06  0.25376655D-06 -0.96334205D-05 -0.17565336D-04 -0.59391629D-06
  0.36577194D-06  0.90578998D-04  0.20766020D-05  0.67183626D-06 -0.37882991D-04
 -0.29485314D-06 -0.17691521D-05  0.14739261D-03 -0.55039386D-04 -0.10297282D-03
 -0.17791419D-03 -0.28841981D-03 -0.43799315D-03 -0.60876928D-03 -0.72378002D-03
 -0.64476839D-03 -0.32020562D-03 -0.51550396D-04 -0.54388712D-06 -0.25757912D-06
 -0.85924082D-05 -0.29942822D-04 -0.10782895D-03 -0.23769550D-03 -0.33459855D-03
  0.15961442D-04  0.43788031D-03  0.25891589D-03 -0.49378885D-08 -0.59809889D-07
 -0.12472722D-06 -0.35769595D-06 -0.18574652D-07  0.15425584D-05  0.39856746D-05
 -0.32473401D-05  0.14742886D-04 -0.69830171D-06 -0.22055172D-05  0.82142173D+01
  0.10820046D+02  0.11936204D+02  0.99139522D+01  0.52645837D+01  0.13582901D+01
 -0.22445095D-02 -0.29565441D-02 -0.32615309D-02 -0.27089568D-02 -0.14385312D-02
 -0.37114858D-03 -0.29027310D-01 -0.38235758D-01 -0.42180026D-01 -0.35033814D-01
 -0.18603928D-01 -0.47999106D-02 -0.35886845D-03  0.34693093D-02  0.48920882D-02
  0.69969803D-02 -0.35431723D-04 -0.64168909D-02  0.37455006D-08 -0.36209090D-07
 -0.51058596D-07 -0.73027299D-07  0.36979996D-09  0.66972921D-07  0.13566181D-05
 -0.13114911D-04 -0.18493394D-04 -0.26450446D-04  0.13394133D-06  0.24257553D-04
  0.53688829D-01 -0.12010059D-04 -0.19221288D-03 -0.42412118D-03  0.49995885D-06
 -0.21141779D-06 -0.15167544D-04 -0.37454622D-07 -0.46580663D-07  0.36042979D-06
  0.68985192D-06 -0.10502817D-05 -0.90730140D-03  0.51078075D-03  0.13011703D-05
 -0.64088097D-06 -0.17315970D-06  0.81404067D-06  0.47180592D-03 -0.31787231D-03
 -0.27011973D-05  0.15956884D-06  0.18763074D-06 -0.34719958D-06 -0.21549634D-04
  0.36872606D-04  0.18230279D-06  0.22741469D-04  0.23333024D-06  0.45580976D-06
  0.41988664D-04 -0.50906276D-06 -0.11801991D-05 -0.11021307D-03 -0.19092795D-06
 -0.18723015D-06 -0.96123256D-05  0.17575491D-04  0.32226578D-07 -0.36576322D-06
 -0.90604648D-04  0.46007122D-06  0.34691469D-06  0.37878176D-04 -0.55675095D-06
  0.75037497D-06  0.14742373D-03
MO    4     MO 0.0        OCC NO =    2.0000300  ORB. ENERGY =    0.000000
 -0.54522813D-04 -0.10162156D-03 -0.17231363D-03 -0.26077836D-03 -0.32530045D-03
 -0.27915618D-03 -0.10690199D-03 -0.31251872D-07 -0.33531208D-06 -0.12360235D-05
 -0.36140601D-05 -0.43551181D-05  0.52462013D-05 -0.37993510D-05  0.13467798D-05
 -0.67497776D-07 -0.52014718D-02 -0.50436780D-02 -0.34024354D-02  0.17974472D-04
  0.17429191D-04  0.11757629D-04 -0.30503263D-05 -0.29577904D-05 -0.19953079D-05
 -0.14815087D-02  0.51195855D-05 -0.22617393D-05 -0.31072344D-03  0.10737946D-05
  0.51177647D-07  0.14433103D-04 -0.49877775D-07 -0.19112985D-07 -0.18116126D-05
  0.16289386D-05  0.18267407D-06  0.18366060D-07 -0.38617582D-03  0.13344733D-05
  0.10330773D-05 -0.70092923D-06 -0.33214808D-06 -0.95163498D-08  0.17474869D-03
 -0.60378875D-06  0.54083664D-06 -0.11218385D-05  0.58100184D-06 -0.11741903D-07
  0.27511157D-04 -0.95078013D-07  0.63078996D-04  0.11504260D-05  0.15744498D-05
 -0.33289062D-03 -0.29547714D-05  0.81167330D-06  0.14365364D-03 -0.49650654D-06
 -0.55350228D-05 -0.47064253D-07 -0.26687872D-04 -0.47961225D-06 -0.64274268D-06
  0.13878745D-03  0.12359391D-05 -0.68723112D-06 -0.58723835D-04  0.20289762D-06
  0.26154591D-05  0.18744179D-07  0.13499626D-03  0.25166022D-03  0.42534005D-03
  0.63936543D-03  0.78534592D-03  0.66280425D-03  0.24923171D-03  0.33673817D-07
  0.25169092D-06  0.94062643D-06  0.26242013D-05  0.35157062D-05 -0.41513935D-05
  0.91397448D-05  0.20128456D-06  0.10396407D-05  0.37015942D-02  0.34704798D-02
  0.24711884D-02 -0.12791765D-04 -0.11993093D-04 -0.85397967D-05  0.34022356D-05
  0.31898121D-05  0.22713362D-05  0.84379156D-03 -0.29157288D-05 -0.12596614D-05
  0.87927799D-04 -0.30377629D-06  0.24809223D-05 -0.15974068D-04  0.55202433D-07
  0.79163339D-08 -0.47554182D-05  0.12749038D-05  0.34805144D-05  0.57683688D-07
 -0.10320980D-02  0.35665393D-05 -0.13270043D-06  0.14781282D-05 -0.13454277D-05
 -0.19591634D-08  0.91057484D-04 -0.31463213D-06 -0.24662175D-06  0.88366414D-06
 -0.63704239D-06  0.72424384D-08 -0.41661977D-04  0.14396820D-06 -0.86535851D-04
 -0.45949813D-06  0.14114388D-06  0.13295900D-03  0.18160638D-05  0.12094219D-05