 cl2co-wavefunction
GAUSSIAN            192 MOL ORBITALS    372 PRIMITIVES        4 NUCLEI
  O    1    (CENTRE  1)   0.00000000  0.00000000  1.29143317  CHARGE =  8.0
  C    2    (CENTRE  2)   0.00000000  0.00000000 -0.93482295  CHARGE =  6.0
  Cl   3    (CENTRE  3)   0.00000000 -2.73418805 -2.77752892  CHARGE = 17.0
  Cl   4    (CENTRE  4)   0.00000000  2.73418805 -2.77752892  CHARGE = 17.0
CENTRE ASSIGNMENTS    1  1  1  1  1  1  1  1  1  1  1  1  1  1  1  1  1  1  1  1
CENTRE ASSIGNMENTS    1  1  1  1  1  1  1  1  1  1  1  1  1  1  1  1  1  1  1  1
CENTRE ASSIGNMENTS    1  1  1  1  1  1  1  1  1  1  1  1  1  1  1  1  1  1  1  1
CENTRE ASSIGNMENTS    1  1  1  1  1  1  1  1  1  1  1  1  2  2  2  2  2  2  2  2
CENTRE ASSIGNMENTS    2  2  2  2  2  2  2  2  2  2  2  2  2  2  2  2  2  2  2  2
CENTRE ASSIGNMENTS    2  2  2  2  2  2  2  2  2  2  2  2  2  2  2  2  2  2  2  2
CENTRE ASSIGNMENTS    2  2  2  2  2  2  2  2  2  2  2  2  2  2  2  2  2  2  2  2
CENTRE ASSIGNMENTS    2  2  2  2  3  3  3  3  3  3  3  3  3  3  3  3  3  3  3  3
CENTRE ASSIGNMENTS    3  3  3  3  3  3  3  3  3  3  3  3  3  3  3  3  3  3  3  3
CENTRE ASSIGNMENTS    3  3  3  3  3  3  3  3  3  3  3  3  3  3  3  3  3  3  3  3
CENTRE ASSIGNMENTS    3  3  3  3  3  3  3  3  3  3  3  3  3  3  3  3  3  3  3  3
CENTRE ASSIGNMENTS    3  3  3  3  3  3  3  3  3  3  3  3  3  3  3  3  3  3  3  3
CENTRE ASSIGNMENTS    3  3  3  3  3  3  3  3  3  3  3  3  3  3  3  3  3  3  4  4
CENTRE ASSIGNMENTS    4  4  4  4  4  4  4  4  4  4  4  4  4  4  4  4  4  4  4  4
CENTRE ASSIGNMENTS    4  4  4  4  4  4  4  4  4  4  4  4  4  4  4  4  4  4  4  4
CENTRE ASSIGNMENTS    4  4  4  4  4  4  4  4  4  4  4  4  4  4  4  4  4  4  4  4
CENTRE ASSIGNMENTS    4  4  4  4  4  4  4  4  4  4  4  4  4  4  4  4  4  4  4  4
CENTRE ASSIGNMENTS    4  4  4  4  4  4  4  4  4  4  4  4  4  4  4  4  4  4  4  4
CENTRE ASSIGNMENTS    4  4  4  4  4  4  4  4  4  4  4  4
TYPE ASSIGNMENTS      1  1  1  1  1  1  1  1  1  1  1  1  1  1  1  1  2  2  2  3
TYPE ASSIGNMENTS      3  3  4  4  4  2  3  4  2  3  4  2  3  4  5  6  7  8  9 10
TYPE ASSIGNMENTS      5  6  7  8  9 10  5  6  7  8  9 10 11 12 13 17 14 15 18 19
TYPE ASSIGNMENTS     16 20 11 12 13 17 14 15 18 19 16 20  1  1  1  1  1  1  1  1
TYPE ASSIGNMENTS      1  1  1  1  1  1  1  1  2  2  2  3  3  3  4  4  4  2  3  4
TYPE ASSIGNMENTS      2  3  4  2  3  4  5  6  7  8  9 10  5  6  7  8  9 10  5  6
TYPE ASSIGNMENTS      7  8  9 10 11 12 13 17 14 15 18 19 16 20 11 12 13 17 14 15
TYPE ASSIGNMENTS     18 19 16 20  1  1  1  1  1  1  1  1  1  1  1  1  1  1  1  1
TYPE ASSIGNMENTS      1  1  1  1  1  1  1  1  1  1  1  1  1  1  1  2  2  2  2  2
TYPE ASSIGNMENTS      2  3  3  3  3  3  3  4  4  4  4  4  4  2  2  2  2  2  2  3
TYPE ASSIGNMENTS      3  3  3  3  3  4  4  4  4  4  4  2  3  4  2  3  4  2  3  4
TYPE ASSIGNMENTS      5  6  7  8  9 10  5  6  7  8  9 10  5  6  7  8  9 10 11 12
TYPE ASSIGNMENTS     13 17 14 15 18 19 16 20 11 12 13 17 14 15 18 19 16 20  1  1
TYPE ASSIGNMENTS      1  1  1  1  1  1  1  1  1  1  1  1  1  1  1  1  1  1  1  1
TYPE ASSIGNMENTS      1  1  1  1  1  1  1  1  1  2  2  2  2  2  2  3  3  3  3  3
TYPE ASSIGNMENTS      3  4  4  4  4  4  4  2  2  2  2  2  2  3  3  3  3  3  3  4
TYPE ASSIGNMENTS      4  4  4  4  4  2  3  4  2  3  4  2  3  4  5  6  7  8  9 10
TYPE ASSIGNMENTS      5  6  7  8  9 10  5  6  7  8  9 10 11 12 13 17 14 15 18 19
TYPE ASSIGNMENTS     16 20 11 12 13 17 14 15 18 19 16 20
EXPONENTS  0.1533000D+05 0.2299000D+04 0.5224000D+03 0.1473000D+03 0.4755000D+02
EXPONENTS  0.1676000D+02 0.6207000D+01 0.5224000D+03 0.1473000D+03 0.4755000D+02
EXPONENTS  0.1676000D+02 0.6207000D+01 0.6882000D+00 0.1752000D+01 0.2384000D+00
EXPONENTS  0.7376000D-01 0.3446000D+02 0.7749000D+01 0.2280000D+01 0.3446000D+02
EXPONENTS  0.7749000D+01 0.2280000D+01 0.3446000D+02 0.7749000D+01 0.2280000D+01
EXPONENTS  0.7156000D+00 0.7156000D+00 0.7156000D+00 0.2140000D+00 0.2140000D+00
EXPONENTS  0.2140000D+00 0.5974000D-01 0.5974000D-01 0.5974000D-01 0.2314000D+01
EXPONENTS  0.2314000D+01 0.2314000D+01 0.2314000D+01 0.2314000D+01 0.2314000D+01
EXPONENTS  0.6450000D+00 0.6450000D+00 0.6450000D+00 0.6450000D+00 0.6450000D+00
EXPONENTS  0.6450000D+00 0.2140000D+00 0.2140000D+00 0.2140000D+00 0.2140000D+00
EXPONENTS  0.2140000D+00 0.2140000D+00 0.1428000D+01 0.1428000D+01 0.1428000D+01
EXPONENTS  0.1428000D+01 0.1428000D+01 0.1428000D+01 0.1428000D+01 0.1428000D+01
EXPONENTS  0.1428000D+01 0.1428000D+01 0.5000000D+00 0.5000000D+00 0.5000000D+00
EXPONENTS  0.5000000D+00 0.5000000D+00 0.5000000D+00 0.5000000D+00 0.5000000D+00
EXPONENTS  0.5000000D+00 0.5000000D+00 0.8236000D+04 0.1235000D+04 0.2808000D+03
EXPONENTS  0.7927000D+02 0.2559000D+02 0.8997000D+01 0.3319000D+01 0.2808000D+03
EXPONENTS  0.7927000D+02 0.2559000D+02 0.8997000D+01 0.3319000D+01 0.3643000D+00
EXPONENTS  0.9059000D+00 0.1285000D+00 0.4402000D-01 0.1871000D+02 0.4133000D+01
EXPONENTS  0.1200000D+01 0.1871000D+02 0.4133000D+01 0.1200000D+01 0.1871000D+02
EXPONENTS  0.4133000D+01 0.1200000D+01 0.3827000D+00 0.3827000D+00 0.3827000D+00
EXPONENTS  0.1209000D+00 0.1209000D+00 0.1209000D+00 0.3569000D-01 0.3569000D-01
EXPONENTS  0.3569000D-01 0.1097000D+01 0.1097000D+01 0.1097000D+01 0.1097000D+01
EXPONENTS  0.1097000D+01 0.1097000D+01 0.3180000D+00 0.3180000D+00 0.3180000D+00
EXPONENTS  0.3180000D+00 0.3180000D+00 0.3180000D+00 0.1000000D+00 0.1000000D+00
EXPONENTS  0.1000000D+00 0.1000000D+00 0.1000000D+00 0.1000000D+00 0.7610000D+00
EXPONENTS  0.7610000D+00 0.7610000D+00 0.7610000D+00 0.7610000D+00 0.7610000D+00
EXPONENTS  0.7610000D+00 0.7610000D+00 0.7610000D+00 0.7610000D+00 0.2680000D+00
EXPONENTS  0.2680000D+00 0.2680000D+00 0.2680000D+00 0.2680000D+00 0.2680000D+00
EXPONENTS  0.2680000D+00 0.2680000D+00 0.2680000D+00 0.2680000D+00 0.4561000D+06
EXPONENTS  0.6833000D+05 0.1555000D+05 0.4405000D+04 0.1439000D+04 0.5204000D+03
EXPONENTS  0.2031000D+03 0.8396000D+02 0.3620000D+02 0.1583000D+02 0.6334000D+01
EXPONENTS  0.4405000D+04 0.1439000D+04 0.5204000D+03 0.2031000D+03 0.8396000D+02
EXPONENTS  0.3620000D+02 0.1583000D+02 0.6334000D+01 0.2694000D+01 0.1439000D+04
EXPONENTS  0.2031000D+03 0.8396000D+02 0.3620000D+02 0.1583000D+02 0.6334000D+01
EXPONENTS  0.2694000D+01 0.4313000D+00 0.9768000D+00 0.1625000D+00 0.5910000D-01
EXPONENTS  0.6633000D+03 0.1568000D+03 0.4998000D+02 0.1842000D+02 0.7240000D+01
EXPONENTS  0.2922000D+01 0.6633000D+03 0.1568000D+03 0.4998000D+02 0.1842000D+02
EXPONENTS  0.7240000D+01 0.2922000D+01 0.6633000D+03 0.1568000D+03 0.4998000D+02
EXPONENTS  0.1842000D+02 0.7240000D+01 0.2922000D+01 0.1568000D+03 0.4998000D+02
EXPONENTS  0.1842000D+02 0.7240000D+01 0.2922000D+01 0.3818000D+00 0.1568000D+03
EXPONENTS  0.4998000D+02 0.1842000D+02 0.7240000D+01 0.2922000D+01 0.3818000D+00
EXPONENTS  0.1568000D+03 0.4998000D+02 0.1842000D+02 0.7240000D+01 0.2922000D+01
EXPONENTS  0.3818000D+00 0.1022000D+01 0.1022000D+01 0.1022000D+01 0.1301000D+00
EXPONENTS  0.1301000D+00 0.1301000D+00 0.4190000D-01 0.4190000D-01 0.4190000D-01
EXPONENTS  0.1046000D+01 0.1046000D+01 0.1046000D+01 0.1046000D+01 0.1046000D+01
EXPONENTS  0.1046000D+01 0.3440000D+00 0.3440000D+00 0.3440000D+00 0.3440000D+00
EXPONENTS  0.3440000D+00 0.3440000D+00 0.1350000D+00 0.1350000D+00 0.1350000D+00
EXPONENTS  0.1350000D+00 0.1350000D+00 0.1350000D+00 0.7060000D+00 0.7060000D+00
EXPONENTS  0.7060000D+00 0.7060000D+00 0.7060000D+00 0.7060000D+00 0.7060000D+00
EXPONENTS  0.7060000D+00 0.7060000D+00 0.7060000D+00 0.3120000D+00 0.3120000D+00
EXPONENTS  0.3120000D+00 0.3120000D+00 0.3120000D+00 0.3120000D+00 0.3120000D+00
EXPONENTS  0.3120000D+00 0.3120000D+00 0.3120000D+00 0.4561000D+06 0.6833000D+05
EXPONENTS  0.1555000D+05 0.4405000D+04 0.1439000D+04 0.5204000D+03 0.2031000D+03
EXPONENTS  0.8396000D+02 0.3620000D+02 0.1583000D+02 0.6334000D+01 0.4405000D+04
EXPONENTS  0.1439000D+04 0.5204000D+03 0.2031000D+03 0.8396000D+02 0.3620000D+02
EXPONENTS  0.1583000D+02 0.6334000D+01 0.2694000D+01 0.1439000D+04 0.2031000D+03
EXPONENTS  0.8396000D+02 0.3620000D+02 0.1583000D+02 0.6334000D+01 0.2694000D+01
EXPONENTS  0.4313000D+00 0.9768000D+00 0.1625000D+00 0.5910000D-01 0.6633000D+03
EXPONENTS  0.1568000D+03 0.4998000D+02 0.1842000D+02 0.7240000D+01 0.2922000D+01
EXPONENTS  0.6633000D+03 0.1568000D+03 0.4998000D+02 0.1842000D+02 0.7240000D+01
EXPONENTS  0.2922000D+01 0.6633000D+03 0.1568000D+03 0.4998000D+02 0.1842000D+02
EXPONENTS  0.7240000D+01 0.2922000D+01 0.1568000D+03 0.4998000D+02 0.1842000D+02
EXPONENTS  0.7240000D+01 0.2922000D+01 0.3818000D+00 0.1568000D+03 0.4998000D+02
EXPONENTS  0.1842000D+02 0.7240000D+01 0.2922000D+01 0.3818000D+00 0.1568000D+03
EXPONENTS  0.4998000D+02 0.1842000D+02 0.7240000D+01 0.2922000D+01 0.3818000D+00
EXPONENTS  0.1022000D+01 0.1022000D+01 0.1022000D+01 0.1301000D+00 0.1301000D+00
EXPONENTS  0.1301000D+00 0.4190000D-01 0.4190000D-01 0.4190000D-01 0.1046000D+01
EXPONENTS  0.1046000D+01 0.1046000D+01 0.1046000D+01 0.1046000D+01 0.1046000D+01
EXPONENTS  0.3440000D+00 0.3440000D+00 0.3440000D+00 0.3440000D+00 0.3440000D+00
EXPONENTS  0.3440000D+00 0.1350000D+00 0.1350000D+00 0.1350000D+00 0.1350000D+00
EXPONENTS  0.1350000D+00 0.1350000D+00 0.7060000D+00 0.7060000D+00 0.7060000D+00
EXPONENTS  0.7060000D+00 0.7060000D+00 0.7060000D+00 0.7060000D+00 0.7060000D+00
EXPONENTS  0.7060000D+00 0.7060000D+00 0.3120000D+00 0.3120000D+00 0.3120000D+00
EXPONENTS  0.3120000D+00 0.3120000D+00 0.3120000D+00 0.3120000D+00 0.3120000D+00
EXPONENTS  0.3120000D+00 0.3120000D+00
MO    1     MO 0.0        OCC NO =    2.0000387  ORB. ENERGY =    0.000000
  0.18069608D-10  0.33678779D-10  0.57107103D-10  0.86425527D-10  0.10780903D-09
  0.92516190D-10  0.35428786D-10  0.27880903D-14  0.29914379D-13  0.11027003D-12
  0.32242311D-12  0.38853553D-12 -0.46803222D-12  0.17362667D-11  0.54046625D-12
  0.77045895D-12  0.16505733D-11  0.16005009D-11  0.10796885D-11 -0.87621504D-03
 -0.84963385D-03 -0.57315798D-03  0.40007409D-11  0.38793729D-11  0.26170020D-11
  0.47171391D-12 -0.94203705D-03  0.14950109D-11  0.10034960D-12 -0.76002098D-03
  0.12909953D-11 -0.42876855D-14 -0.19846349D-04  0.29838509D-13  0.32395669D-12
 -0.58212540D-12  0.25816871D-12  0.15951516D-12  0.12829696D-12 -0.20041911D-03
 -0.19434810D-12  0.64594558D-12 -0.45159748D-12  0.45641847D-13 -0.57318281D-13
 -0.70675597D-04  0.15091971D-12  0.59891605D-13 -0.21081132D-12 -0.21302818D-12
 -0.97098469D-14  0.11216480D-03 -0.18903054D-13 -0.14730647D-03  0.86854290D-13
  0.10388751D-12  0.22241355D-03 -0.10241327D-12 -0.47178347D-13  0.21950586D-03
 -0.15814960D-12 -0.10410957D-11  0.85931854D-14 -0.10267751D-04  0.95538824D-13
 -0.45068413D-13 -0.20049850D-03  0.80359294D-13  0.19288857D-13  0.23130175D-03
 -0.36697576D-12  0.32578857D-12 -0.12535572D-10 -0.23368831D-10 -0.39496508D-10
 -0.59370618D-10 -0.72926170D-10 -0.61547115D-10 -0.23143322D-10 -0.11421125D-13
 -0.85365835D-13 -0.31903162D-12 -0.89004854D-12 -0.11924197D-11  0.14080253D-11
 -0.40894573D-12 -0.17623120D-12  0.21612331D-12 -0.11837152D-11 -0.11098083D-11
 -0.79024961D-12  0.11087863D-02  0.10395576D-02  0.74022697D-03  0.24739420D-11
  0.23194779D-11  0.16516064D-11 -0.27177833D-12  0.14392423D-03  0.21627256D-11
 -0.27428079D-13  0.71708578D-04 -0.48582570D-12  0.48302684D-14 -0.87398743D-05
 -0.56869727D-13 -0.19215429D-12  0.17883240D-11 -0.15961697D-11  0.16181125D-11
  0.33379284D-12  0.18404415D-03  0.24541801D-12 -0.45501071D-12  0.20959269D-12
 -0.62359668D-13 -0.32755202D-13  0.74505083D-04  0.26317984D-14  0.30059156D-12
 -0.30322336D-12  0.96838924D-13  0.12966581D-13  0.54664530D-04  0.28140275D-13
  0.25496705D-03  0.34051872D-12 -0.43222671D-13  0.37238493D-04 -0.44552588D-12
 -0.41198152D-13 -0.80213965D-03 -0.57603029D-12 -0.46752632D-12 -0.10320789D-13
 -0.25895741D-03 -0.17949683D-12  0.37873012D-13  0.27217637D-04  0.24176877D-12
 -0.69106458D-14  0.74965458D-03  0.29672172D-12  0.47651792D-12 -0.27051951D-03
 -0.50611314D-03 -0.87445125D-03 -0.14175882D-02 -0.21527437D-02 -0.29921113D-02
 -0.35573910D-02 -0.31690475D-02 -0.15738160D-02 -0.25337106D-03 -0.26732144D-05
 -0.15747096D-05 -0.52529676D-04 -0.18305540D-03 -0.65921215D-03 -0.14531511D-02
 -0.20455678D-02  0.97580251D-04  0.26769807D-02  0.15828819D-02  0.27584224D-06
  0.33411231D-05  0.69675601D-05  0.19981749D-04  0.10376244D-05 -0.86170993D-04
 -0.22264930D-03  0.18140417D-03  0.81577617D-04 -0.10095678D-03 -0.57169928D-04
  0.13665391D-07  0.18000517D-07  0.19857388D-07  0.16493116D-07  0.87583021D-08
  0.22596877D-08 -0.46638800D+01 -0.61434210D+01 -0.67771550D+01 -0.56289579D+01
 -0.29891328D+01 -0.77121189D+00  0.67689618D+01  0.89163062D+01  0.98360814D+01
  0.81696358D+01  0.43383033D+01  0.11193049D+01 -0.58506658D-12  0.56560473D-11
  0.79756171D-11  0.11407242D-10 -0.57764669D-13 -0.10461517D-10  0.23743701D-03
 -0.22953883D-02 -0.32367371D-02 -0.46293903D-02  0.23442581D-04  0.42455875D-02
 -0.33428178D-03  0.32316211D-02  0.45569231D-02  0.65176055D-02 -0.33004237D-04
 -0.59772590D-02  0.89547339D-10 -0.29933367D-01  0.43665418D-01 -0.68994835D-12
  0.34408801D-03 -0.55707043D-03 -0.27205147D-13  0.10942380D-04 -0.17205856D-04
 -0.14429787D-04 -0.74756354D-03  0.76199333D-03  0.13614358D-11  0.83609230D-12
  0.68712634D-03  0.58540004D-04  0.43214084D-03 -0.49068084D-03 -0.77060994D-12
 -0.51266064D-12 -0.35232752D-03  0.47708240D-05 -0.18169700D-05 -0.29538540D-05
  0.31339976D-13  0.47756955D-13 -0.48965925D-05  0.27487804D-13 -0.13857814D-04
 -0.26197427D-05  0.44202009D-13  0.18510991D-04  0.37024780D-04 -0.12666542D-12
  0.23062450D-04 -0.29165552D-04  0.26773336D-13  0.34731087D-13  0.75070588D-04
 -0.42092531D-04 -0.14133276D-12  0.11417342D-04  0.51390216D-04  0.37139496D-13
 -0.23662911D-03  0.74887377D-04 -0.24275839D-12  0.27051949D-03  0.50611310D-03
  0.87445118D-03  0.14175881D-02  0.21527436D-02  0.29921110D-02  0.35573907D-02
  0.31690473D-02  0.15738159D-02  0.25337104D-03  0.26732142D-05  0.15747095D-05
  0.52529674D-04  0.18305540D-03  0.65921212D-03  0.14531511D-02  0.20455677D-02
 -0.97580247D-04 -0.26769806D-02 -0.15828819D-02 -0.27584224D-06 -0.33411231D-05
 -0.69675601D-05 -0.19981749D-04 -0.10376244D-05  0.86170993D-04  0.22264930D-03
 -0.18140417D-03 -0.81577613D-04  0.10095678D-03  0.57169927D-04 -0.84315653D-08
 -0.11106344D-07 -0.12252036D-07 -0.10176275D-07 -0.54038845D-08 -0.13942304D-08
 -0.46638800D+01 -0.61434210D+01 -0.67771550D+01 -0.56289579D+01 -0.29891328D+01
 -0.77121190D+00 -0.67689618D+01 -0.89163062D+01 -0.98360815D+01 -0.81696358D+01
 -0.43383033D+01 -0.11193049D+01  0.37989319D-12 -0.36725629D-11 -0.51786971D-11
 -0.74069068D-11  0.37507533D-13  0.67928321D-11  0.23743701D-03 -0.22953883D-02
 -0.32367371D-02 -0.46293903D-02  0.23442581D-04  0.42455875D-02  0.33428178D-03
 -0.32316211D-02 -0.45569231D-02 -0.65176056D-02  0.33004237D-04  0.59772590D-02
 -0.54886557D-10 -0.29933367D-01 -0.43665419D-01  0.45169692D-12  0.34408801D-03
  0.55707043D-03  0.13598063D-13  0.10942380D-04  0.17205856D-04  0.14429787D-04
  0.74756355D-03 -0.76199333D-03  0.10752256D-11 -0.53910460D-12  0.68712634D-03
 -0.58540004D-04 -0.43214084D-03  0.49068085D-03 -0.49754461D-12  0.34164829D-12
 -0.35232752D-03 -0.47708240D-05  0.18169702D-05  0.29538538D-05  0.26407736D-13
 -0.50886725D-13 -0.48965924D-05 -0.33367269D-13 -0.13857814D-04  0.26197427D-05
 -0.67313387D-13  0.18510991D-04 -0.37024780D-04  0.16741519D-12  0.23062450D-04
  0.29165552D-04  0.52832112D-14 -0.12774537D-13  0.75070588D-04  0.42092531D-04
  0.10240353D-12  0.11417342D-04 -0.51390216D-04 -0.64079919D-13 -0.23662911D-03
 -0.74887376D-04 -0.15474243D-12
MO    2     MO 0.0        OCC NO =    2.0000377  ORB. ENERGY =    0.000000
  0.55203436D-02  0.10289013D-01  0.17446467D-01  0.26403373D-01  0.32936126D-01
  0.28264096D-01  0.10823647D-01  0.87463258D-06  0.93842337D-05  0.34592052D-04
  0.10114513D-03  0.12188480D-03 -0.14682316D-03  0.54199743D-03  0.20355342D-03
  0.29996472D-03 -0.73733172D-12 -0.71496374D-12 -0.48231032D-12  0.19736657D-11
  0.19137918D-11  0.12910326D-11  0.15917566D-02  0.15434684D-02  0.10412147D-02
 -0.20843546D-12  0.23486144D-11  0.58576919D-03 -0.40211761D-13  0.19243769D-11
  0.49684010D-03  0.15244557D-14  0.44036745D-13  0.10503903D-04  0.13188892D-03
 -0.21761517D-03  0.85726253D-04  0.43498693D-13 -0.41761444D-13  0.47551954D-12
 -0.76431463D-04  0.24753528D-03 -0.17110382D-03  0.81962388D-14  0.17701803D-13
  0.20036155D-12  0.58112810D-04  0.22128768D-04 -0.80241579D-04 -0.48160730D-13
  0.22758372D-14 -0.28460376D-12  0.14652140D-13  0.37619912D-12  0.32983913D-04
 -0.60602643D-13 -0.57462681D-12 -0.37596602D-04  0.16646224D-13 -0.55397056D-12
 -0.61355136D-04 -0.23479382D-12 -0.51653585D-14  0.28577950D-13  0.34711244D-04
  0.20264978D-13  0.51590149D-12  0.32399426D-04 -0.47689029D-14 -0.60163533D-12
 -0.13653316D-03  0.74827631D-13 -0.38867323D-02 -0.72456519D-02 -0.12246139D-01
 -0.18408231D-01 -0.22611215D-01 -0.19083067D-01 -0.71757317D-02 -0.41661670D-05
 -0.31139518D-04 -0.11637549D-03 -0.32466949D-03 -0.43496760D-03  0.51361563D-03
 -0.10466424D-03 -0.12445080D-04  0.85657442D-04  0.54032226D-12  0.50658646D-12
  0.36071974D-12 -0.26449354D-11 -0.24797950D-11 -0.17657618D-11  0.97962924D-03
  0.91846468D-03  0.65400157D-03  0.11630094D-12 -0.39399019D-12  0.82772363D-03
  0.88157884D-14 -0.22061785D-12 -0.20426948D-03 -0.19873493D-14  0.26756315D-13
 -0.21912863D-04 -0.68424593D-04  0.68319324D-03 -0.61476864D-03  0.36496478D-12
 -0.15517785D-12 -0.47696531D-12  0.82290660D-04 -0.16598651D-03  0.83695846D-04
 -0.13107625D-13  0.10488342D-13 -0.10597784D-12 -0.12936628D-06  0.11552789D-03
 -0.11539853D-03  0.22100275D-13 -0.52358988D-14 -0.12538431D-12 -0.12252946D-13
 -0.66005045D-12  0.13661338D-03  0.22815933D-13 -0.99828862D-13 -0.17574657D-03
  0.13942904D-13  0.20799802D-11 -0.23409358D-03 -0.10626393D-12  0.51684615D-14
  0.66557604D-12 -0.68578761D-04 -0.17582394D-13 -0.61680293D-13  0.94805469D-04
  0.20770097D-14 -0.19350478D-11  0.11093081D-03  0.10766829D-12 -0.14775670D-02
 -0.27643702D-02 -0.47762186D-02 -0.77428116D-02 -0.11758202D-01 -0.16342795D-01
 -0.19430331D-01 -0.17309214D-01 -0.85961217D-02 -0.13839029D-02 -0.14600993D-04
 -0.72303071D-05 -0.24119094D-03 -0.84050214D-03 -0.30267843D-02 -0.66721693D-02
 -0.93922609D-02  0.44804146D-03  0.12291405D-01  0.72678305D-02  0.91827487D-07
  0.11122551D-05  0.23194908D-05  0.66518957D-05  0.34542368D-06 -0.28686200D-04
 -0.74119633D-04  0.60389188D-04  0.32815718D-03 -0.19063411D-03 -0.16751238D-03
  0.13328825D-08  0.17557181D-08  0.19368319D-08  0.16086905D-08  0.85425930D-09
  0.22040336D-09  0.41038751D+01  0.54057635D+01  0.59634033D+01  0.49530734D+01
  0.26302194D+01  0.67861035D+00 -0.71180208D+01 -0.93760985D+01 -0.10343304D+02
 -0.85909241D+01 -0.45620191D+01 -0.11770248D+01 -0.62950125D-13  0.60856130D-12
  0.85813496D-12  0.12273600D-11 -0.62151783D-14 -0.11256049D-11 -0.17586634D-03
  0.17001626D-02  0.23974067D-02  0.34289258D-02 -0.17363598D-04 -0.31446484D-02
  0.33298254D-03 -0.32190610D-02 -0.45392120D-02 -0.64922740D-02  0.32875961D-04
  0.59540275D-02  0.86273170D-11  0.26400018D-01 -0.46087889D-01 -0.72504271D-13
 -0.16697572D-03  0.22040341D-03 -0.15608285D-14 -0.11653159D-04  0.71508740D-05
  0.22320112D-04  0.42855155D-03 -0.45087166D-03  0.21398964D-12  0.87679232D-13
 -0.39944588D-03  0.47169655D-05 -0.27387584D-03  0.26915888D-03 -0.81840307D-13
 -0.57752692D-13  0.44938876D-03 -0.66245495D-06  0.38078597D-04 -0.37416142D-04
  0.63792326D-14  0.12387145D-13 -0.16764505D-04  0.80024072D-14 -0.32805369D-04
  0.10028409D-04  0.16813826D-13  0.51266932D-04  0.52354238D-05 -0.40821047D-13
  0.47149173D-04 -0.35320650D-04 -0.25317097D-14  0.15240695D-15 -0.48108662D-04
 -0.13487198D-04 -0.17996876D-13  0.14147148D-04 -0.40030155D-04  0.17539655D-13
  0.13017884D-03  0.80491749D-04 -0.23986299D-13 -0.14775671D-02 -0.27643704D-02
 -0.47762188D-02 -0.77428119D-02 -0.11758203D-01 -0.16342796D-01 -0.19430332D-01
 -0.17309215D-01 -0.85961221D-02 -0.13839029D-02 -0.14600993D-04 -0.72303072D-05
 -0.24119095D-03 -0.84050216D-03 -0.30267844D-02 -0.66721694D-02 -0.93922611D-02
  0.44804147D-03  0.12291405D-01  0.72678307D-02  0.91827485D-07  0.11122551D-05
  0.23194907D-05  0.66518956D-05  0.34542368D-06 -0.28686200D-04 -0.74119631D-04
  0.60389187D-04  0.32815719D-03 -0.19063411D-03 -0.16751238D-03 -0.36688149D-08
 -0.48326875D-08 -0.53312108D-08 -0.44279880D-08 -0.23513845D-08 -0.60666949D-09
 -0.41038750D+01 -0.54057635D+01 -0.59634033D+01 -0.49530733D+01 -0.26302194D+01
 -0.67861035D+00 -0.71180207D+01 -0.93760984D+01 -0.10343304D+02 -0.85909241D+01
 -0.45620191D+01 -0.11770248D+01  0.15507891D-12 -0.14992031D-11 -0.21140329D-11
 -0.30236263D-11  0.15311218D-13  0.27729505D-11  0.17586634D-03 -0.17001626D-02
 -0.23974067D-02 -0.34289258D-02  0.17363598D-04  0.31446484D-02  0.33298254D-03
 -0.32190610D-02 -0.45392120D-02 -0.64922739D-02  0.32875961D-04  0.59540275D-02
 -0.24081259D-10 -0.26400018D-01 -0.46087889D-01  0.18348643D-12  0.16697572D-03
  0.22040341D-03  0.76436711D-14  0.11653159D-04  0.71508739D-05  0.22320112D-04
  0.42855154D-03 -0.45087165D-03  0.34051176D-12 -0.22151317D-12  0.39944588D-03
  0.47169658D-05 -0.27387584D-03  0.26915888D-03 -0.20525708D-12  0.13525528D-12
 -0.44938876D-03 -0.66245492D-06  0.38078597D-04 -0.37416142D-04  0.71497776D-14
 -0.10352963D-13  0.16764505D-04 -0.59801376D-14  0.32805369D-04  0.10028409D-04
 -0.78883602D-14 -0.51266932D-04  0.52354240D-05  0.25828773D-13 -0.47149174D-04
 -0.35320650D-04  0.74503538D-14 -0.10302042D-13  0.48108661D-04 -0.13487198D-04
  0.36677303D-13 -0.14147148D-04 -0.40030155D-04 -0.57711764D-14 -0.13017884D-03
  0.80491750D-04 -0.64951553D-13
MO    3     MO 0.0        OCC NO =    2.0000335  ORB. ENERGY =    0.000000
  0.11618080D-10  0.21654191D-10  0.36717723D-10  0.55568370D-10  0.69317162D-10
  0.59484437D-10  0.22779379D-10  0.13177246D-14  0.14138321D-13  0.52116512D-13
  0.15238562D-12  0.18363209D-12 -0.22120431D-12  0.10672973D-11  0.77033987D-13
 -0.44750971D-13  0.21027210D-12  0.20389320D-12  0.13754515D-12  0.14773745D-11
  0.14325563D-11  0.96639403D-12 -0.29407709D-12 -0.28515585D-12 -0.19236445D-12
  0.63114912D-13  0.13613981D-11 -0.34493322D-13  0.18654513D-13  0.10791770D-11
 -0.17041492D-12 -0.23373136D-15  0.29999348D-13 -0.32114678D-14 -0.32722299D-13
  0.51187452D-13 -0.18465153D-13  0.11527405D-03  0.27279505D-13  0.29275450D-12
  0.25184249D-13 -0.50720485D-13  0.25536236D-13  0.33288841D-04 -0.14248393D-13
  0.90244912D-13 -0.17497185D-13 -0.44483683D-15  0.17942022D-13 -0.15870509D-03
 -0.35806201D-14 -0.16492358D-12 -0.80715107D-14  0.20573687D-12 -0.49372356D-13
  0.23088258D-13 -0.28253719D-12  0.49783536D-13  0.11262737D-14 -0.33467342D-12
  0.98333532D-13 -0.78164323D-03  0.86314313D-15  0.11555014D-13  0.37364612D-14
 -0.59457089D-14  0.27174418D-12 -0.12816677D-13  0.33562795D-14 -0.30640922D-12
  0.16072938D-14  0.24315074D-03  0.13767892D-10  0.25666124D-10  0.43379246D-10
  0.65207098D-10  0.80095240D-10  0.67597557D-10  0.25418447D-10  0.17436837D-14
  0.13032955D-13  0.48707129D-13  0.13588531D-12  0.18204885D-12 -0.21496574D-12
  0.12278877D-11 -0.40704835D-12 -0.72845603D-13 -0.11754997D-12 -0.11021057D-12
 -0.78476488D-13 -0.19374892D-11 -0.18165193D-11 -0.12934699D-11 -0.78038011D-12
 -0.73165596D-12 -0.52098263D-12 -0.31221996D-13 -0.20277898D-12 -0.18177522D-12
 -0.53585724D-14 -0.10762347D-12  0.96182436D-13  0.57838401D-15  0.99346824D-14
  0.66569378D-14 -0.29591839D-13 -0.22654859D-12  0.25614042D-12  0.12035630D-02
  0.41037919D-13 -0.20262520D-12  0.58226446D-13 -0.23404491D-13 -0.34821954D-13
 -0.45907193D-04 -0.10780466D-13 -0.15557732D-12  0.78282185D-14 -0.38191870D-13
  0.30363651D-13  0.72287111D-04  0.12101339D-14 -0.79406650D-13  0.29363507D-14
 -0.34688654D-12 -0.39407754D-13 -0.66858975D-14 -0.40996752D-13  0.41581965D-13
 -0.21231546D-14  0.10816564D-11  0.76641297D-13 -0.35042032D-03 -0.91212011D-15
  0.35622260D-12  0.14543547D-13  0.59895775D-14 -0.41255172D-13 -0.33431959D-13
 -0.32532172D-14 -0.10274126D-11 -0.10198681D-13  0.35490725D-03 -0.25054325D-10
 -0.46873969D-10 -0.80987821D-10 -0.13129077D-09 -0.19937764D-09 -0.27711616D-09
 -0.32946988D-09 -0.29350322D-09 -0.14575990D-09 -0.23466111D-10 -0.24758134D-12
  0.50544621D-13  0.16860839D-11  0.58756650D-11  0.21159221D-10  0.46642869D-10
  0.65658106D-10 -0.31321056D-11 -0.85925034D-10 -0.50806935D-10  0.99641931D-16
  0.12069071D-14  0.25168775D-14  0.72179666D-14  0.37481895D-15 -0.31127372D-13
 -0.80427152D-13  0.65528258D-13 -0.33903279D-11  0.47149339D-12  0.13995562D-12
  0.82142005D+01  0.10820024D+02  0.11936180D+02  0.99139319D+01  0.52645729D+01
  0.13582873D+01  0.39294794D-08  0.51760436D-08  0.57099863D-08  0.47425907D-08
  0.25184473D-08  0.64977256D-09 -0.76029034D-08 -0.10014802D-07 -0.11047895D-07
 -0.91761416D-08 -0.48727858D-08 -0.12572042D-08 -0.35886849D-03  0.34693096D-02
  0.48920887D-02  0.69969810D-02 -0.35431727D-04 -0.64168915D-02 -0.22931879D-12
  0.22169066D-11  0.31260697D-11  0.44711066D-11 -0.22641054D-13 -0.41004264D-11
  0.37250305D-12 -0.36011199D-11 -0.50779549D-11 -0.72628188D-11  0.36777892D-13
  0.66606898D-11  0.53688746D-01  0.23871369D-10 -0.49846315D-10 -0.42411673D-03
 -0.36532654D-12  0.71535797D-12 -0.15166636D-04 -0.10716105D-13  0.21179855D-13
  0.10209326D-12  0.79262819D-12 -0.89472145D-12  0.90730121D-03  0.51078007D-03
 -0.10476121D-11 -0.14635551D-12 -0.43839897D-12  0.58475448D-12 -0.47181393D-03
 -0.31787386D-03  0.52730776D-12 -0.72994208D-14 -0.88060386D-14  0.16105459D-13
  0.21550574D-04  0.36876824D-04  0.16181635D-13  0.22747649D-04  0.33251336D-13
  0.12151728D-14  0.41986662D-04 -0.59163962D-13 -0.54962107D-13 -0.11022961D-03
 -0.40590047D-13  0.51316588D-13  0.96089189D-05  0.17572933D-04 -0.87220478D-13
  0.55037157D-13 -0.90606619D-04 -0.35694681D-13 -0.72119698D-13  0.37887822D-04
  0.29735611D-12 -0.92991773D-13 -0.14742429D-03  0.37600819D-10  0.70347120D-10
  0.12154422D-09  0.19703746D-09  0.29922029D-09  0.41588806D-09  0.49445903D-09
  0.44048129D-09  0.21875232D-09  0.35217273D-10  0.37156303D-12 -0.76386283D-13
 -0.25481185D-11 -0.88796829D-11 -0.31977176D-10 -0.70489705D-10 -0.99226754D-10
  0.47334396D-11  0.12985544D-09  0.76782709D-10 -0.14305361D-14 -0.17327286D-13
 -0.36134229D-13 -0.10362668D-12 -0.53811890D-14  0.44688849D-12  0.11546740D-11
 -0.94077404D-12  0.48520986D-11 -0.51850851D-13  0.21590003D-13 -0.82142005D+01
 -0.10820024D+02 -0.11936180D+02 -0.99139319D+01 -0.52645729D+01 -0.13582873D+01
  0.79323554D-08  0.10448768D-07  0.11526626D-07  0.95737657D-08  0.50839352D-08
  0.13116819D-08  0.11072824D-07  0.14585500D-07  0.16090090D-07  0.13364079D-07
  0.70966969D-08  0.18309849D-08  0.35886849D-03 -0.34693096D-02 -0.48920887D-02
 -0.69969810D-02  0.35431727D-04  0.64168915D-02 -0.38654680D-12  0.37368857D-11
  0.52693989D-11  0.75366344D-11 -0.38164456D-13 -0.69118046D-11 -0.54336330D-12
  0.52528868D-11  0.74071187D-11  0.10594139D-10 -0.53647230D-13 -0.97158249D-11
 -0.53688746D-01  0.51301430D-10  0.71312660D-10  0.42411673D-03 -0.58553193D-12
 -0.77526069D-12  0.15166636D-04 -0.19737084D-13 -0.23882856D-13 -0.37959100D-13
 -0.11151664D-11  0.11531255D-11  0.90730121D-03 -0.51078007D-03 -0.10901351D-11
  0.59058286D-13  0.69173082D-12 -0.75078911D-12 -0.47181393D-03  0.31787386D-03
  0.56827490D-12  0.42028892D-15 -0.71520237D-14  0.67317348D-14  0.21550574D-04
 -0.36876824D-04 -0.91539149D-14 -0.22747649D-04  0.21311552D-14 -0.56448740D-14
 -0.41986662D-04  0.49014443D-15  0.49989130D-13  0.11022961D-03 -0.68836100D-14
 -0.33054508D-13  0.96089189D-05 -0.17572933D-04 -0.11757194D-12 -0.54654395D-13
  0.90606619D-04 -0.44705258D-14  0.76583425D-13 -0.37887822D-04  0.35718634D-12
  0.87379760D-13 -0.14742429D-03
MO    4     MO 0.0        OCC NO =    2.0000300  ORB. ENERGY =    0.000000
  0.19326488D-11  0.36021395D-11  0.61079338D-11  0.92437083D-11  0.11530797D-10
  0.98951397D-11  0.37893128D-11  0.28706523D-15  0.30800215D-14  0.11353539D-13
  0.33197083D-13  0.40004099D-13 -0.48189176D-13  0.15046492D-12 -0.68910768D-13
 -0.37555675D-13 -0.52015770D-02 -0.50437800D-02 -0.34025042D-02 -0.10437740D-11
 -0.10121097D-11 -0.68276320D-12 -0.75632374D-12 -0.73337961D-12 -0.49473355D-12
 -0.14815536D-02 -0.57212443D-12 -0.19925771D-12 -0.31073984D-03 -0.44254380D-12
 -0.69905945D-13  0.14432522D-04 -0.30956489D-13 -0.51403162D-14 -0.27845292D-13
  0.33088724D-13 -0.52434322D-14 -0.17228708D-14 -0.38621085D-03 -0.25537846D-12
  0.18648418D-14 -0.40807239D-13  0.38942397D-13  0.64544986D-14  0.17477537D-03
  0.40326156D-13 -0.61505103D-14 -0.47443360D-14  0.10894846D-13 -0.41223616D-14
  0.27510560D-04  0.76446104D-13  0.63099638D-04 -0.84247449D-13  0.13537340D-13
 -0.33294089D-03  0.66051635D-13 -0.12562680D-13  0.14364198D-03  0.18669071D-12
 -0.28049339D-13 -0.21728874D-13 -0.26694138D-04  0.59751346D-14 -0.11651677D-13
  0.13880677D-03 -0.75785940D-13 -0.13100521D-14 -0.58724358D-04  0.57860536D-13
  0.36265085D-13  0.22524739D-14 -0.66955373D-11 -0.12481830D-10 -0.21095994D-10
 -0.31711213D-10 -0.38951546D-10 -0.32873730D-10 -0.12361381D-10  0.32211080D-15
  0.24075787D-14  0.89976712D-14  0.25102102D-13  0.33629896D-13 -0.39710636D-13
 -0.67752012D-12  0.33283686D-12  0.13437225D-13  0.37017152D-02  0.34705932D-02
  0.24712691D-02  0.14408759D-11  0.13509127D-11  0.96193033D-12  0.14724141D-12
  0.13804818D-12  0.98298529D-13  0.84382080D-03 -0.26201011D-14 -0.15344509D-12
  0.87919741D-04 -0.78414788D-13 -0.69359615D-13 -0.15974552D-04  0.90021830D-14
  0.33313238D-14  0.29254418D-13 -0.78472468D-13  0.49218050D-13  0.31934545D-13
 -0.10321510D-02  0.36537256D-13 -0.77122306D-13  0.82506207D-13 -0.53839013D-14
  0.30248072D-14  0.91075606D-04  0.35580766D-12 -0.58752974D-14 -0.13315326D-13
  0.19190623D-13  0.32438597D-14 -0.41657335D-04  0.73343471D-13 -0.86547712D-04
  0.88471477D-13 -0.98372717D-14  0.13297955D-03  0.12477871D-13  0.31919182D-13