 Entering Gaussian System, Link 0=/home/bruns/programas/chemistry/gaussian/g09/g09
 Input=GAUSSIAN.com
 Output=GAUSSIAN.log
 Initial command:
 /home/bruns/programas/chemistry/gaussian/g09/l1.exe /home/bruns/programas/chemistry/gaussian/work/Gau-47077.inp -scrdir=/home/bruns/programas/chemistry/gaussian/work/
 Entering Link 1 = /home/bruns/programas/chemistry/gaussian/g09/l1.exe PID=     47079.
  
 Copyright (c) 1988,1990,1992,1993,1995,1998,2003,2009,2010,
            Gaussian, Inc.  All Rights Reserved.
  
 This is part of the Gaussian(R) 09 program.  It is based on
 the Gaussian(R) 03 system (copyright 2003, Gaussian, Inc.),
 the Gaussian(R) 98 system (copyright 1998, Gaussian, Inc.),
 the Gaussian(R) 94 system (copyright 1995, Gaussian, Inc.),
 the Gaussian 92(TM) system (copyright 1992, Gaussian, Inc.),
 the Gaussian 90(TM) system (copyright 1990, Gaussian, Inc.),
 the Gaussian 88(TM) system (copyright 1988, Gaussian, Inc.),
 the Gaussian 86(TM) system (copyright 1986, Carnegie Mellon
 University), and the Gaussian 82(TM) system (copyright 1983,
 Carnegie Mellon University). Gaussian is a federally registered
 trademark of Gaussian, Inc.
  
 This software contains proprietary and confidential information,
 including trade secrets, belonging to Gaussian, Inc.
  
 This software is provided under written license and may be
 used, copied, transmitted, or stored only in accord with that
 written license.
  
 The following legend is applicable only to US Government
 contracts under FAR:
  
                    RESTRICTED RIGHTS LEGEND
  
 Use, reproduction and disclosure by the US Government is
 subject to restrictions as set forth in subparagraphs (a)
 and (c) of the Commercial Computer Software - Restricted
 Rights clause in FAR 52.227-19.
  
 Gaussian, Inc.
 340 Quinnipiac St., Bldg. 40, Wallingford CT 06492
  
  
 ---------------------------------------------------------------
 Warning -- This program may not be used in any manner that
 competes with the business of Gaussian, Inc. or will provide
 assistance to any competitor of Gaussian, Inc.  The licensee
 of this program is prohibited from giving any competitor of
 Gaussian, Inc. access to this program.  By using this program,
 the user acknowledges that Gaussian, Inc. is engaged in the
 business of creating and licensing software in the field of
 computational chemistry and represents and warrants to the
 licensee that it is not a competitor of Gaussian, Inc. and that
 it will not use this program in any manner prohibited above.
 ---------------------------------------------------------------
  

 Cite this work as:
 Gaussian 09, Revision B.01,
 M. J. Frisch, G. W. Trucks, H. B. Schlegel, G. E. Scuseria, 
 M. A. Robb, J. R. Cheeseman, G. Scalmani, V. Barone, B. Mennucci, 
 G. A. Petersson, H. Nakatsuji, M. Caricato, X. Li, H. P. Hratchian, 
 A. F. Izmaylov, J. Bloino, G. Zheng, J. L. Sonnenberg, M. Hada, 
 M. Ehara, K. Toyota, R. Fukuda, J. Hasegawa, M. Ishida, T. Nakajima, 
 Y. Honda, O. Kitao, H. Nakai, T. Vreven, J. A. Montgomery, Jr., 
 J. E. Peralta, F. Ogliaro, M. Bearpark, J. J. Heyd, E. Brothers, 
 K. N. Kudin, V. N. Staroverov, T. Keith, R. Kobayashi, J. Normand, 
 K. Raghavachari, A. Rendell, J. C. Burant, S. S. Iyengar, J. Tomasi, 
 M. Cossi, N. Rega, J. M. Millam, M. Klene, J. E. Knox, J. B. Cross, 
 V. Bakken, C. Adamo, J. Jaramillo, R. Gomperts, R. E. Stratmann, 
 O. Yazyev, A. J. Austin, R. Cammi, C. Pomelli, J. W. Ochterski, 
 R. L. Martin, K. Morokuma, V. G. Zakrzewski, G. A. Voth, 
 P. Salvador, J. J. Dannenberg, S. Dapprich, A. D. Daniels, 
 O. Farkas, J. B. Foresman, J. V. Ortiz, J. Cioslowski, 
 and D. J. Fox, Gaussian, Inc., Wallingford CT, 2010.
 
 ******************************************
 Gaussian 09:  EM64L-G09RevB.01 12-Aug-2010
                27-Nov-2021 
 ******************************************
 %nproc=8
 Will use up to    8 processors via shared memory.
 %mem=8GB
 -----------------------------------------------------
 # qcisd/aug-cc-pvtz nosymm density=current output=wfn
 -----------------------------------------------------
 1/30=1,38=1/1;
 2/12=2,15=1,17=6,18=5,40=1/2;
 3/5=16,6=1,7=10,11=9,16=1,25=1,30=1,71=1/1,2,3;
 4//1;
 5/5=2,38=5/2;
 8/6=4,9=120000,10=1/1,4;
 9/5=8,15=1/13;
 11/28=-7,31=1,32=3,42=3/11;
 10/5=6,13=10,31=1/2;
 6/7=2,8=2,9=2,10=2,22=-1,31=1/1;
 99/5=1,6=1100,9=1/99;
 ------------------
 cl2co-wavefunction
 ------------------
 Symbolic Z-matrix:
 Charge =  0 Multiplicity = 1
 O                     0.        0.        0.6834 
 C                     0.       -0.01     -0.49469 
 Cl                    0.       -1.44687  -1.46981 
 Cl                    0.        1.44687  -1.46981 
 
                          Input orientation:                          
 ---------------------------------------------------------------------
 Center     Atomic      Atomic             Coordinates (Angstroms)
 Number     Number       Type             X           Y           Z
 ---------------------------------------------------------------------
      1          8           0        0.000000    0.000000    0.683397
      2          6           0        0.000000   -0.010000   -0.494687
      3         17           0        0.000000   -1.446870   -1.469805
      4         17           0        0.000000    1.446870   -1.469805
 ---------------------------------------------------------------------
                    Distance matrix (angstroms):
                    1          2          3          4
     1  O    0.000000
     2  C    1.178126   0.000000
     3  Cl   2.594169   1.736505   0.000000
     4  Cl   2.594169   1.753090   2.893740   0.000000
 Symmetry turned off by external request.
 Stoichiometry    CCl2O
 Framework group  CS[SG(CCl2O)]
 Deg. of freedom     5
 Full point group                 CS      NOp   2
 Rotational constants (GHZ):      7.9179390      3.4517834      2.4038415
 Standard basis: Aug-CC-pVTZ (5D, 7F)
 Integral buffers will be    131072 words long.
 Raffenetti 1 integral format.
 Two-electron integral symmetry is turned off.
   192 basis functions,   372 primitive gaussians,   228 cartesian basis functions
    24 alpha electrons       24 beta electrons
       nuclear repulsion energy       191.7661946761 Hartrees.
 NAtoms=    4 NActive=    4 NUniq=    4 SFac= 1.00D+00 NAtFMM=   50 NAOKFM=F Big=F
 One-electron integrals computed using PRISM.
 NBasis=   192 RedAO= T  NBF=   192
 NBsUse=   192 1.00D-06 NBFU=   192
 Harris functional with IExCor=  205 diagonalized for initial guess.
 ExpMin= 3.57D-02 ExpMax= 4.56D+05 ExpMxC= 1.44D+03 IAcc=3 IRadAn=         0 AccDes= 0.00D+00
 HarFok:  IExCor=  205 AccDes= 0.00D+00 IRadAn=         0 IDoV= 1
 ScaDFX=  1.000000  1.000000  1.000000  1.000000
 FoFCou: FMM=F IPFlag=           0 FMFlag=      100000 FMFlg1=           0
         NFxFlg=           0 DoJE=T BraDBF=F KetDBF=T FulRan=T
         Omega=  0.000000  0.000000  1.000000  0.000000  0.000000 ICntrl=     500 IOpCl=  0
         NMat0=    1 NMatS0=    1 NMatT0=    0 NMatD0=    1 NMtDS0=    0 NMtDT0=    0
         I1Cent=           4 NGrid=           0.
 Symmetry not used in FoFCou.
 Requested convergence on RMS density matrix=1.00D-08 within 128 cycles.
 Requested convergence on MAX density matrix=1.00D-06.
 Requested convergence on             energy=1.00D-06.
 No special actions if energy rises.
 Keep R1 ints in memory in canonical form, NReq=346956363.
 SCF Done:  E(RHF) =  -1031.80267897     A.U. after   12 cycles
             Convg  =    0.6348D-08             -V/T =  2.0003
 ExpMin= 3.57D-02 ExpMax= 4.56D+05 ExpMxC= 1.44D+03 IAcc=3 IRadAn=         5 AccDes= 0.00D+00
 HarFok:  IExCor=  205 AccDes= 0.00D+00 IRadAn=         5 IDoV=-2
 ScaDFX=  1.000000  1.000000  1.000000  1.000000
 DSYEVD returned Info=          93 IAlg= 4 N=    46 NDim=    46 NE2=    21472416 trying DSYEV.
 Range of M.O.s used for correlation:    13   192
 NBasis=   192 NAE=    24 NBE=    24 NFC=    12 NFV=     0
 NROrb=    180 NOA=    12 NOB=    12 NVA=   168 NVB=   168

 **** Warning!!: The largest alpha MO coefficient is  0.28333799D+02

 Semi-Direct transformation.
 ModeAB=           2 MOrb=            12 LenV=    1072714365
 LASXX=     33405819 LTotXX=    33405819 LenRXX=    33405819
 LTotAB=    33954012 MaxLAS=    56388960 LenRXY=    56388960
 NonZer=    66811638 LenScr=   100987392 LnRSAI=           0
 LnScr1=           0 LExtra=           0 Total=    190782171
 MaxDsk=          -1 SrtSym=           F ITran=            4
 JobTyp=0 Pass  1:  I=   1 to  12.
 (rs|ai) integrals will be sorted in core.
 Spin components of T(2) and E(2):
     alpha-alpha T2 =       0.3523787484D-01 E2=     -0.1018074746D+00
     alpha-beta  T2 =       0.1834222599D+00 E2=     -0.5758086881D+00
     beta-beta   T2 =       0.3523787484D-01 E2=     -0.1018074746D+00
 ANorm=    0.1119775875D+01
 E2 =    -0.7794236373D+00 EUMP2 =    -0.10325821026069D+04
 R2 and R3 integrals will be kept in memory, NReq=   687553722.
 Iterations=  50 Convergence= 0.100D-07
 Iteration Nr.   1
 **********************
 DD1Dir will call FoFMem   1 times, MxPair=       156
 NAB=    78 NAA=     0 NBB=     0.
 MP4(R+Q)=  0.22522097D-01
 E3=       -0.19048575D-01        EUMP3=      -0.10326011512D+04
 E4(DQ)=    0.28542434D-02        UMP4(DQ)=   -0.10325982969D+04
 E4(SDQ)=  -0.61292946D-02        UMP4(SDQ)=  -0.10326072805D+04
 DE(Corr)= -0.77595012     E(Corr)=     -1032.5786291    
 NORM(A)=   0.11213563D+01
 Iteration Nr.   2
 **********************
 DD1Dir will call FoFMem   1 times, MxPair=       156
 NAB=    78 NAA=     0 NBB=     0.
 DE(Corr)= -0.80166664     E(CORR)=     -1032.6043456     Delta=-2.57D-02
 NORM(A)=   0.11307178D+01
 Iteration Nr.   3
 **********************
 DD1Dir will call FoFMem   1 times, MxPair=       156
 NAB=    78 NAA=     0 NBB=     0.
 DE(Corr)= -0.80006144     E(CORR)=     -1032.6027404     Delta= 1.61D-03
 NORM(A)=   0.11333223D+01
 Iteration Nr.   4
 **********************
 DD1Dir will call FoFMem   1 times, MxPair=       156
 NAB=    78 NAA=     0 NBB=     0.
 DE(Corr)= -0.80249182     E(CORR)=     -1032.6051708     Delta=-2.43D-03
 NORM(A)=   0.11343340D+01
 Iteration Nr.   5
 **********************
 DD1Dir will call FoFMem   1 times, MxPair=       156
 NAB=    78 NAA=     0 NBB=     0.
 DE(Corr)= -0.80280923     E(CORR)=     -1032.6054882     Delta=-3.17D-04
 NORM(A)=   0.11347246D+01
 Iteration Nr.   6
 **********************
 DD1Dir will call FoFMem   1 times, MxPair=       156
 NAB=    78 NAA=     0 NBB=     0.
 DE(Corr)= -0.80285991     E(CORR)=     -1032.6055389     Delta=-5.07D-05
 NORM(A)=   0.11347959D+01
 Iteration Nr.   7
 **********************
 DD1Dir will call FoFMem   1 times, MxPair=       156
 NAB=    78 NAA=     0 NBB=     0.
 DE(Corr)= -0.80286907     E(CORR)=     -1032.6055480     Delta=-9.16D-06
 NORM(A)=   0.11347971D+01
 Iteration Nr.   8
 **********************
 DD1Dir will call FoFMem   1 times, MxPair=       156
 NAB=    78 NAA=     0 NBB=     0.
 DE(Corr)= -0.80286865     E(CORR)=     -1032.6055476     Delta= 4.15D-07
 NORM(A)=   0.11348052D+01
 Iteration Nr.   9
 **********************
 DD1Dir will call FoFMem   1 times, MxPair=       156
 NAB=    78 NAA=     0 NBB=     0.
 DE(Corr)= -0.80286739     E(CORR)=     -1032.6055464     Delta= 1.26D-06
 NORM(A)=   0.11348048D+01
 Iteration Nr.  10
 **********************
 DD1Dir will call FoFMem   1 times, MxPair=       156
 NAB=    78 NAA=     0 NBB=     0.
 DE(Corr)= -0.80286858     E(CORR)=     -1032.6055475     Delta=-1.19D-06
 NORM(A)=   0.11348064D+01
 Iteration Nr.  11
 **********************
 DD1Dir will call FoFMem   1 times, MxPair=       156
 NAB=    78 NAA=     0 NBB=     0.
 DE(Corr)= -0.80286940     E(CORR)=     -1032.6055484     Delta=-8.22D-07
 NORM(A)=   0.11348076D+01
 Iteration Nr.  12
 **********************
 DD1Dir will call FoFMem   1 times, MxPair=       156
 NAB=    78 NAA=     0 NBB=     0.
 DE(Corr)= -0.80286965     E(CORR)=     -1032.6055486     Delta=-2.49D-07
 NORM(A)=   0.11348082D+01
 Iteration Nr.  13
 **********************
 DD1Dir will call FoFMem   1 times, MxPair=       156
 NAB=    78 NAA=     0 NBB=     0.
 DE(Corr)= -0.80286998     E(CORR)=     -1032.6055489     Delta=-3.28D-07
 NORM(A)=   0.11348087D+01
 Iteration Nr.  14
 **********************
 DD1Dir will call FoFMem   1 times, MxPair=       156
 NAB=    78 NAA=     0 NBB=     0.
 DE(Corr)= -0.80287004     E(CORR)=     -1032.6055490     Delta=-6.52D-08
 NORM(A)=   0.11348089D+01
 Iteration Nr.  15
 **********************
 DD1Dir will call FoFMem   1 times, MxPair=       156
 NAB=    78 NAA=     0 NBB=     0.
 DE(Corr)= -0.80287009     E(CORR)=     -1032.6055491     Delta=-4.80D-08
 NORM(A)=   0.11348089D+01
 Iteration Nr.  16
 **********************
 DD1Dir will call FoFMem   1 times, MxPair=       156
 NAB=    78 NAA=     0 NBB=     0.
 DE(Corr)= -0.80287011     E(CORR)=     -1032.6055491     Delta=-1.57D-08
 NORM(A)=   0.11348090D+01
 Iteration Nr.  17
 **********************
 DD1Dir will call FoFMem   1 times, MxPair=       156
 NAB=    78 NAA=     0 NBB=     0.
 DE(Corr)= -0.80287011     E(CORR)=     -1032.6055491     Delta= 1.89D-09
 NORM(A)=   0.11348090D+01
 Iteration Nr.  18
 **********************
 DD1Dir will call FoFMem   1 times, MxPair=       156
 NAB=    78 NAA=     0 NBB=     0.
 DE(Corr)= -0.80287011     E(CORR)=     -1032.6055491     Delta=-9.18D-10
 NORM(A)=   0.11348090D+01
 Iteration Nr.  19
 **********************
 DD1Dir will call FoFMem   1 times, MxPair=       156
 NAB=    78 NAA=     0 NBB=     0.
 DE(Corr)= -0.80287011     E(CORR)=     -1032.6055491     Delta= 7.70D-10
 NORM(A)=   0.11348090D+01
 Largest amplitude= 3.32D-02

 Z-AMPLITUDE ITERATIONS

 Iteration Nr.   1
 **********************
 DD1Dir will call FoFMem   1 times, MxPair=       156
 NAB=    78 NAA=     0 NBB=     0.
 DE(Z)  -0.77483198D+00          E(Z)=    -0.10325775110D+04
 NORM(A)=   0.11348140D+01
 Iteration Nr.   2
 **********************
 DD1Dir will call FoFMem   1 times, MxPair=       156
 NAB=    78 NAA=     0 NBB=     0.
 DE(Z)  -0.77483215D+00          E(Z)=    -0.10325775111D+04
 NORM(A)=   0.11348112D+01
 Iteration Nr.   3
 **********************
 DD1Dir will call FoFMem   1 times, MxPair=       156
 NAB=    78 NAA=     0 NBB=     0.
 DE(Z)  -0.77483205D+00          E(Z)=    -0.10325775110D+04
 NORM(A)=   0.11348305D+01
 Iteration Nr.   4
 **********************
 DD1Dir will call FoFMem   1 times, MxPair=       156
 NAB=    78 NAA=     0 NBB=     0.
 DE(Z)  -0.77483265D+00          E(Z)=    -0.10325775116D+04
 NORM(A)=   0.11348107D+01
 Iteration Nr.   5
 **********************
 DD1Dir will call FoFMem   1 times, MxPair=       156
 NAB=    78 NAA=     0 NBB=     0.
 DE(Z)  -0.77483204D+00          E(Z)=    -0.10325775110D+04
 NORM(A)=   0.11251431D+01
 Iteration Nr.   6
 **********************
 DD1Dir will call FoFMem   1 times, MxPair=       156
 NAB=    78 NAA=     0 NBB=     0.
 DE(Z)  -0.77450979D+00          E(Z)=    -0.10325771888D+04
 NORM(A)=   0.11251413D+01
 Iteration Nr.   7
 **********************
 DD1Dir will call FoFMem   1 times, MxPair=       156
 NAB=    78 NAA=     0 NBB=     0.
 DE(Z)  -0.77451342D+00          E(Z)=    -0.10325771924D+04
 NORM(A)=   0.11251396D+01
 Iteration Nr.   8
 **********************
 DD1Dir will call FoFMem   1 times, MxPair=       156
 NAB=    78 NAA=     0 NBB=     0.
 DE(Z)  -0.77451396D+00          E(Z)=    -0.10325771929D+04
 NORM(A)=   0.11251410D+01
 Iteration Nr.   9
 **********************
 DD1Dir will call FoFMem   1 times, MxPair=       156
 NAB=    78 NAA=     0 NBB=     0.
 DE(Z)  -0.77451389D+00          E(Z)=    -0.10325771929D+04
 NORM(A)=   0.11251412D+01
 Iteration Nr.  10
 **********************
 DD1Dir will call FoFMem   1 times, MxPair=       156
 NAB=    78 NAA=     0 NBB=     0.
 DE(Z)  -0.77451427D+00          E(Z)=    -0.10325771932D+04
 NORM(A)=   0.11251417D+01
 Iteration Nr.  11
 **********************
 DD1Dir will call FoFMem   1 times, MxPair=       156
 NAB=    78 NAA=     0 NBB=     0.
 DE(Z)  -0.77451416D+00          E(Z)=    -0.10325771931D+04
 NORM(A)=   0.11251418D+01
 Iteration Nr.  12
 **********************
 DD1Dir will call FoFMem   1 times, MxPair=       156
 NAB=    78 NAA=     0 NBB=     0.
 DE(Z)  -0.77451426D+00          E(Z)=    -0.10325771932D+04
 NORM(A)=   0.11251418D+01
 Iteration Nr.  13
 **********************
 DD1Dir will call FoFMem   1 times, MxPair=       156
 NAB=    78 NAA=     0 NBB=     0.
 DE(Z)  -0.77451424D+00          E(Z)=    -0.10325771932D+04
 NORM(A)=   0.11251418D+01
 Iteration Nr.  14
 **********************
 DD1Dir will call FoFMem   1 times, MxPair=       156
 NAB=    78 NAA=     0 NBB=     0.
 DE(Z)  -0.77451424D+00          E(Z)=    -0.10325771932D+04
 NORM(A)=   0.11251419D+01
 Discarding MO integrals.
          Differentiating once with respect to electric field.
                with respect to dipole field.
          Electric field/nuclear overlap derivatives assumed to be zero.
          Keep R1 ints in memory in canonical form, NReq=342715808.
          There are     1 degrees of freedom in the 1st order CPHF.  IDoFFX=0.
 LinEq1:  Iter=  0 NonCon=     1 RMS=2.34D-03 Max=5.60D-02
 AX will form     1 AO Fock derivatives at one time.
 LinEq1:  Iter=  1 NonCon=     1 RMS=8.30D-04 Max=1.86D-02
 LinEq1:  Iter=  2 NonCon=     1 RMS=3.10D-04 Max=5.19D-03
 LinEq1:  Iter=  3 NonCon=     1 RMS=1.28D-04 Max=3.02D-03
 LinEq1:  Iter=  4 NonCon=     1 RMS=5.11D-05 Max=1.23D-03
 LinEq1:  Iter=  5 NonCon=     1 RMS=1.65D-05 Max=3.34D-04
 LinEq1:  Iter=  6 NonCon=     1 RMS=4.18D-06 Max=5.73D-05
 LinEq1:  Iter=  7 NonCon=     1 RMS=9.92D-07 Max=1.09D-05
 LinEq1:  Iter=  8 NonCon=     1 RMS=2.10D-07 Max=3.15D-06
 LinEq1:  Iter=  9 NonCon=     1 RMS=4.76D-08 Max=8.06D-07
 LinEq1:  Iter= 10 NonCon=     1 RMS=1.21D-08 Max=2.22D-07
 LinEq1:  Iter= 11 NonCon=     1 RMS=2.54D-09 Max=3.43D-08
 LinEq1:  Iter= 12 NonCon=     1 RMS=4.71D-10 Max=1.15D-08
 LinEq1:  Iter= 13 NonCon=     1 RMS=9.07D-11 Max=1.26D-09
 LinEq1:  Iter= 14 NonCon=     0 RMS=2.58D-11 Max=4.51D-10
 Linear equations converged to 1.000D-10 1.000D-09 after    14 iterations.
 End of Minotr Frequency-dependent properties file   721 does not exist.
 End of Minotr Frequency-dependent properties file   722 does not exist.

 **********************************************************************

            Population analysis using the QCI/CC density.

 **********************************************************************

     Natural Orbital Coefficients:
                           1         2         3         4         5
     Eigenvalues --     2.00004   2.00004   2.00003   2.00003   2.00003
   1 1   O  1S         -0.00105   0.01076   0.00000   0.00000   0.00590
   2        2S          0.00000  -0.00025   0.00000   0.00000  -0.00018
   3        3S         -0.00005   0.00050   0.00000   0.00000   0.00023
   4        4S         -0.00007   0.00083   0.00000   0.00000   0.00026
   5        5S         -0.00026   0.00296   0.00000   0.00000   0.00012
   6        6PX         0.00000   0.00000   0.00002  -0.00106   0.00000
   7        6PY        -0.00018   0.00000   0.00000   0.00000   0.00023
   8        6PZ        -0.00003   0.00032   0.00000   0.00000  -0.00004
   9        7PX         0.00000   0.00000   0.00002  -0.00158   0.00000
  10        7PY        -0.00100  -0.00006   0.00000   0.00000   0.00044
  11        7PZ        -0.00007   0.00062   0.00000   0.00000  -0.00008
  12        8PX         0.00000   0.00000   0.00003  -0.00150   0.00000
  13        8PY        -0.00365  -0.00031   0.00000   0.00000   0.00143
  14        8PZ        -0.00026   0.00238   0.00000   0.00000  -0.00031
  15        9PX         0.00000   0.00000   0.00000   0.00034   0.00000
  16        9PY        -0.00047  -0.00007   0.00000   0.00000   0.00107
  17        9PZ        -0.00002   0.00025   0.00000   0.00000   0.00007
  18       10D 0        0.00000   0.00001   0.00000   0.00000   0.00001
  19       10D+1        0.00000   0.00000   0.00000  -0.00003   0.00000
  20       10D-1       -0.00002   0.00000   0.00000   0.00000   0.00003
  21       10D+2        0.00000   0.00003   0.00000   0.00000   0.00000
  22       10D-2        0.00000   0.00000   0.00001   0.00000   0.00000
  23       11D 0        0.00002  -0.00022   0.00000   0.00000   0.00003
  24       11D+1        0.00000   0.00000  -0.00001   0.00013   0.00000
  25       11D-1       -0.00005  -0.00001   0.00000   0.00000  -0.00008
  26       11D+2        0.00001  -0.00024   0.00000   0.00000  -0.00001
  27       11D-2        0.00000   0.00000   0.00003   0.00000   0.00000
  28       12D 0        0.00006  -0.00072   0.00000   0.00000   0.00003
  29       12D+1        0.00000   0.00000  -0.00001   0.00014   0.00000
  30       12D-1        0.00058   0.00004   0.00000   0.00000  -0.00026
  31       12D+2       -0.00005   0.00018   0.00000   0.00000  -0.00009
  32       12D-2        0.00000   0.00000  -0.00083   0.00001   0.00000
  33       13F 0        0.00000   0.00001   0.00000   0.00000   0.00001
  34       13F+1        0.00000   0.00000   0.00000   0.00002   0.00000
  35       13F-1        0.00003   0.00000   0.00000   0.00000  -0.00002
  36       13F+2        0.00000   0.00000   0.00000   0.00000   0.00000
  37       13F-2        0.00000   0.00000  -0.00006   0.00000   0.00000
  38       13F+3        0.00000   0.00000   0.00000   0.00004   0.00000
  39       13F-3        0.00004   0.00000   0.00000   0.00000   0.00000
  40       14F 0        0.00000   0.00011   0.00000   0.00000   0.00003
  41       14F+1        0.00000   0.00000   0.00001  -0.00008   0.00000
  42       14F-1        0.00030   0.00003   0.00000   0.00000   0.00003
  43       14F+2        0.00000   0.00014   0.00000   0.00000   0.00004
  44       14F-2        0.00000   0.00000   0.00020  -0.00001   0.00000
  45       14F+3        0.00000   0.00000   0.00000  -0.00017   0.00000
  46       14F-3       -0.00019  -0.00002   0.00000   0.00000   0.00004
  47 2   C  1S          0.00097  -0.01160   0.00000   0.00000  -0.06160
  48        2S         -0.00013   0.00143   0.00000   0.00000   0.00125
  49        3S          0.00002  -0.00016   0.00000   0.00000  -0.00225
  50        4S         -0.00003  -0.00008   0.00000   0.00000  -0.00272
  51        5S         -0.00014   0.00124   0.00000   0.00000  -0.00021
  52        6PX         0.00000   0.00000  -0.00005   0.00169   0.00000
  53        6PY         0.00051   0.00003   0.00000   0.00000  -0.00065
  54        6PZ        -0.00006   0.00044   0.00000   0.00000  -0.00017
  55        7PX         0.00000   0.00000  -0.00005   0.00197   0.00000
  56        7PY         0.00033   0.00005   0.00000   0.00000   0.00016
  57        7PZ        -0.00023   0.00192   0.00000   0.00000  -0.00026
  58        8PX         0.00000   0.00000   0.00000   0.00087   0.00000
  59        8PY         0.00071  -0.00003   0.00000   0.00000   0.00227
  60        8PZ         0.00029  -0.00199   0.00000   0.00000   0.00106
  61        9PX         0.00000   0.00000   0.00000  -0.00072   0.00000
  62        9PY        -0.00039  -0.00003   0.00000   0.00000  -0.00102
  63        9PZ         0.00008  -0.00099   0.00000   0.00000  -0.00011
  64       10D 0        0.00004  -0.00032   0.00000   0.00000  -0.00003
  65       10D+1        0.00000   0.00000   0.00001  -0.00031   0.00000
  66       10D-1        0.00005   0.00001   0.00000   0.00000  -0.00002
  67       10D+2        0.00003  -0.00022   0.00000   0.00000   0.00003
  68       10D-2        0.00000   0.00000   0.00036   0.00000   0.00000
  69       11D 0       -0.00010   0.00037   0.00000   0.00000  -0.00009
  70       11D+1        0.00000   0.00000  -0.00004   0.00024   0.00000
  71       11D-1        0.00019   0.00003   0.00000   0.00000  -0.00141
  72       11D+2       -0.00009   0.00064   0.00000   0.00000   0.00039
  73       11D-2        0.00000   0.00000  -0.00012   0.00002   0.00000
  74       12D 0        0.00035  -0.00393   0.00000   0.00000  -0.00005
  75       12D+1        0.00000   0.00000   0.00001  -0.00082   0.00000
  76       12D-1        0.00107   0.00012   0.00000   0.00000  -0.00207
  77       12D+2        0.00022  -0.00227   0.00000   0.00000   0.00034
  78       12D-2        0.00000   0.00000   0.00143  -0.00001   0.00000
  79       13F 0       -0.00002   0.00017   0.00000   0.00000  -0.00006
  80       13F+1        0.00000   0.00000  -0.00001   0.00007   0.00000
  81       13F-1       -0.00041  -0.00003   0.00000   0.00000   0.00001
  82       13F+2        0.00000   0.00002   0.00000   0.00000  -0.00001
  83       13F-2        0.00000   0.00000  -0.00011   0.00000   0.00000
  84       13F+3        0.00000   0.00000   0.00000  -0.00009   0.00000
  85       13F-3       -0.00009  -0.00001   0.00000   0.00000   0.00000
  86       14F 0        0.00011  -0.00090   0.00000   0.00000   0.00010
  87       14F+1        0.00000   0.00000   0.00001   0.00011   0.00000
  88       14F-1        0.00401   0.00033   0.00000   0.00000  -0.00040
  89       14F+2        0.00002  -0.00005   0.00000   0.00000  -0.00002
  90       14F-2        0.00000   0.00000   0.00120  -0.00002   0.00000
  91       14F+3        0.00000   0.00000  -0.00002   0.00061   0.00000
  92       14F-3        0.00118   0.00011   0.00000   0.00000  -0.00038
  93 3   Cl 1S          0.00011  -0.00272   0.00000   0.00000  -0.23012
  94        2S         -0.00003   0.00959   0.00000   0.00000   0.77665
  95        3S          0.00043   0.00014   0.00000   0.00000  -0.02314
  96        4S          0.00000   0.00055   0.00000   0.00000   0.06027
  97        5S         -0.00042  -0.00115   0.00000   0.00000  -0.00153
  98        6S         -0.00048  -0.00203   0.00000   0.00000  -0.00152
  99        7PX         0.00000   0.00000   0.69716  -0.68734   0.00000
 100        7PY        -0.42506   0.31142   0.00000   0.00000  -0.40845
 101        7PZ         0.62119  -0.54448   0.00000   0.00000  -0.26588
 102        8PX         0.00000   0.00000  -0.01507   0.01333   0.00000
 103        8PY         0.01059  -0.00649   0.00000   0.00000   0.00775
 104        8PZ        -0.01516   0.01255   0.00000   0.00000   0.00522
 105        9PX         0.00000   0.00000   0.03691  -0.03688   0.00000
 106        9PY        -0.02210   0.01623   0.00000   0.00000  -0.02322
 107        9PZ         0.03246  -0.02856   0.00000   0.00000  -0.01517
 108       10PX         0.00000   0.00000  -0.00382   0.00327   0.00000
 109       10PY         0.00324  -0.00123   0.00000   0.00000   0.00251
 110       10PZ        -0.00516   0.00148   0.00000   0.00000   0.00174
 111       11PX         0.00000   0.00000  -0.00056   0.00080   0.00000
 112       11PY         0.00044  -0.00039   0.00000   0.00000   0.00016
 113       11PZ        -0.00064   0.00019   0.00000   0.00000  -0.00004
 114       12D 0        0.00045  -0.00022   0.00000   0.00000  -0.00006
 115       12D+1        0.00000   0.00000   0.00017  -0.00015   0.00000
 116       12D-1        0.00023  -0.00011   0.00000   0.00000   0.00019
 117       12D+2        0.00025  -0.00011   0.00000   0.00000  -0.00008
 118       12D-2        0.00000   0.00000   0.00030  -0.00014   0.00000
 119       13D 0       -0.00205   0.00090   0.00000   0.00000   0.00018
 120       13D+1        0.00000   0.00000  -0.00075   0.00061   0.00000
 121       13D-1       -0.00089   0.00095   0.00000   0.00000   0.00077
 122       13D+2       -0.00091   0.00057   0.00000   0.00000  -0.00057
 123       13D-2        0.00000   0.00000  -0.00110   0.00098   0.00000
 124       14D 0        0.00000  -0.00076   0.00000   0.00000  -0.00008
 125       14D+1        0.00000   0.00000   0.00043   0.00005   0.00000
 126       14D-1       -0.00004  -0.00019   0.00000   0.00000   0.00039
 127       14D+2        0.00012  -0.00045   0.00000   0.00000  -0.00001
 128       14D-2        0.00000   0.00000   0.00025  -0.00010   0.00000
 129       15F 0       -0.00001   0.00001   0.00000   0.00000   0.00002
 130       15F+1        0.00000   0.00000  -0.00007  -0.00004   0.00000
 131       15F-1        0.00001   0.00003   0.00000   0.00000   0.00002
 132       15F+2        0.00002   0.00002   0.00000   0.00000  -0.00001
 133       15F-2        0.00000   0.00000   0.00000  -0.00001   0.00000
 134       15F+3        0.00000   0.00000  -0.00001  -0.00002   0.00000
 135       15F-3        0.00001   0.00004   0.00000   0.00000  -0.00003
 136       16F 0       -0.00039  -0.00016   0.00000   0.00000  -0.00014
 137       16F+1        0.00000   0.00000   0.00014   0.00016   0.00000
 138       16F-1       -0.00095   0.00042   0.00000   0.00000   0.00016
 139       16F+2       -0.00003  -0.00029   0.00000   0.00000  -0.00028
 140       16F-2        0.00000   0.00000  -0.00036   0.00033   0.00000
 141       16F+3        0.00000   0.00000   0.00032  -0.00028   0.00000
 142       16F-3       -0.00020   0.00017   0.00000   0.00000  -0.00010
 143 4   Cl 1S          0.00092  -0.00200   0.00000   0.00000   0.08591
 144        2S         -0.00349   0.00709   0.00000   0.00000  -0.29016
 145        3S         -0.00039   0.00013   0.00000   0.00000   0.00850
 146        4S         -0.00022   0.00037   0.00000   0.00000  -0.02244
 147        5S          0.00067  -0.00093   0.00000   0.00000   0.00017
 148        6S          0.00085  -0.00187   0.00000   0.00000   0.00140
 149        7PX         0.00000   0.00000  -0.68784  -0.69668   0.00000
 150        7PY        -0.35858  -0.37733   0.00000   0.00000  -0.15776
 151        7PZ        -0.51516  -0.65102   0.00000   0.00000   0.12754
 152        8PX         0.00000   0.00000   0.01483   0.01348   0.00000
 153        8PY         0.00914   0.00809   0.00000   0.00000   0.00329
 154        8PZ         0.01259   0.01508   0.00000   0.00000  -0.00276
 155        9PX         0.00000   0.00000  -0.03639  -0.03735   0.00000
 156        9PY        -0.01863  -0.01965   0.00000   0.00000  -0.00896
 157        9PZ        -0.02690  -0.03412   0.00000   0.00000   0.00725
 158       10PX         0.00000   0.00000   0.00380   0.00337   0.00000
 159       10PY         0.00292   0.00175   0.00000   0.00000   0.00062
 160       10PZ         0.00479   0.00246   0.00000   0.00000  -0.00070
 161       11PX         0.00000   0.00000   0.00057   0.00082   0.00000
 162       11PY         0.00037   0.00047   0.00000   0.00000   0.00012
 163       11PZ         0.00062   0.00034   0.00000   0.00000   0.00013
 164       12D 0       -0.00040  -0.00029   0.00000   0.00000   0.00002
 165       12D+1        0.00000   0.00000  -0.00016  -0.00015   0.00000
 166       12D-1        0.00021   0.00015   0.00000   0.00000   0.00005
 167       12D+2       -0.00022  -0.00015   0.00000   0.00000   0.00001
 168       12D-2        0.00000   0.00000   0.00029   0.00015   0.00000
 169       13D 0        0.00179   0.00120   0.00000   0.00000  -0.00023
 170       13D+1        0.00000   0.00000   0.00070   0.00059   0.00000
 171       13D-1       -0.00070  -0.00108   0.00000   0.00000   0.00043
 172       13D+2        0.00078   0.00069   0.00000   0.00000   0.00016
 173       13D-2        0.00000   0.00000  -0.00105  -0.00096   0.00000
 174       14D 0        0.00012  -0.00075   0.00000   0.00000   0.00002
 175       14D+1        0.00000   0.00000  -0.00043   0.00005   0.00000
 176       14D-1       -0.00007   0.00020   0.00000   0.00000   0.00013
 177       14D+2       -0.00004  -0.00045   0.00000   0.00000  -0.00027
 178       14D-2        0.00000   0.00000   0.00025   0.00009   0.00000
 179       15F 0        0.00000   0.00001   0.00000   0.00000  -0.00002
 180       15F+1        0.00000   0.00000   0.00007  -0.00004   0.00000
 181       15F-1        0.00002  -0.00003   0.00000   0.00000   0.00002
 182       15F+2       -0.00003   0.00001   0.00000   0.00000   0.00001
 183       15F-2        0.00000   0.00000   0.00000   0.00001   0.00000
 184       15F+3        0.00000   0.00000   0.00001  -0.00001   0.00000
 185       15F-3        0.00002  -0.00004   0.00000   0.00000   0.00000
 186       16F 0        0.00039  -0.00010   0.00000   0.00000   0.00011
 187       16F+1        0.00000   0.00000  -0.00015   0.00015   0.00000
 188       16F-1       -0.00085  -0.00056   0.00000   0.00000   0.00014
 189       16F+2        0.00008  -0.00029   0.00000   0.00000   0.00013
 190       16F-2        0.00000   0.00000  -0.00035  -0.00032   0.00000
 191       16F+3        0.00000   0.00000  -0.00032  -0.00028   0.00000
 192       16F-3       -0.00017  -0.00020   0.00000   0.00000   0.00000
                           6         7         8         9        10
     Eigenvalues --     2.00003   2.00001   2.00001   2.00001   2.00000
   1 1   O  1S          0.01287  -0.12834   0.22488   0.88075   0.34102
   2        2S         -0.00039   0.00283  -0.00490  -0.01618  -0.00557
   3        3S          0.00051  -0.00536   0.00939   0.03746   0.01491
   4        4S          0.00061   0.00032  -0.00036  -0.00328  -0.00109
   5        5S          0.00028  -0.00088   0.00158  -0.00099  -0.00167
   6        6PX         0.00000   0.00000   0.00000   0.00000   0.00000
   7        6PY        -0.00011  -0.00067  -0.00043  -0.00003  -0.00001
   8        6PZ        -0.00009   0.00090  -0.00153  -0.00374   0.00045
   9        7PX         0.00000   0.00000   0.00000   0.00000   0.00000
  10        7PY        -0.00020  -0.00116  -0.00070   0.00000   0.00002
  11        7PZ        -0.00020   0.00064  -0.00112  -0.00077   0.00313
  12        8PX         0.00000   0.00000   0.00000   0.00000   0.00000
  13        8PY        -0.00061  -0.00360  -0.00209  -0.00002   0.00003
  14        8PZ        -0.00071   0.00101  -0.00180  -0.00260   0.00279
  15        9PX         0.00000   0.00000   0.00000   0.00000   0.00000
  16        9PY        -0.00046  -0.00132  -0.00079   0.00000   0.00002
  17        9PZ         0.00015   0.00014  -0.00024  -0.00032   0.00086
  18       10D 0        0.00002  -0.00005   0.00009   0.00021   0.00002
  19       10D+1        0.00000   0.00000   0.00000   0.00000   0.00000
  20       10D-1       -0.00001  -0.00003  -0.00002   0.00000   0.00000
  21       10D+2        0.00000   0.00000   0.00000  -0.00007   0.00000
  22       10D-2        0.00000   0.00000   0.00000   0.00000   0.00000
  23       11D 0        0.00007  -0.00004   0.00008  -0.00036  -0.00104
  24       11D+1        0.00000   0.00000   0.00000   0.00000   0.00000
  25       11D-1        0.00004   0.00010   0.00004   0.00000  -0.00002
  26       11D+2       -0.00002   0.00009  -0.00015  -0.00004  -0.00012
  27       11D-2        0.00000   0.00000   0.00000   0.00000   0.00000
  28       12D 0        0.00007  -0.00002   0.00002   0.00074  -0.00096
  29       12D+1        0.00000   0.00000   0.00000   0.00000   0.00000
  30       12D-1        0.00011   0.00091   0.00052   0.00001  -0.00002
  31       12D+2       -0.00020   0.00031  -0.00054   0.00016  -0.00003
  32       12D-2        0.00000   0.00000   0.00000   0.00000   0.00000
  33       13F 0        0.00001  -0.00005   0.00008   0.00006  -0.00013
  34       13F+1        0.00000   0.00000   0.00000   0.00000   0.00000
  35       13F-1        0.00001   0.00005   0.00004   0.00000   0.00000
  36       13F+2       -0.00001   0.00001  -0.00002  -0.00002  -0.00002
  37       13F-2        0.00000   0.00000   0.00000   0.00000   0.00000
  38       13F+3        0.00000   0.00000   0.00000   0.00000   0.00000
  39       13F-3        0.00000   0.00000   0.00000   0.00000   0.00000
  40       14F 0        0.00006  -0.00007   0.00012  -0.00007   0.00053
  41       14F+1        0.00000   0.00000   0.00000   0.00000   0.00000
  42       14F-1       -0.00001  -0.00004  -0.00002   0.00000   0.00002
  43       14F+2        0.00008  -0.00016   0.00025  -0.00010   0.00018
  44       14F-2        0.00000   0.00000   0.00000   0.00000   0.00000
  45       14F+3        0.00000   0.00000   0.00000   0.00000   0.00000
  46       14F-3       -0.00002  -0.00006  -0.00003   0.00000   0.00000
  47 2   C  1S         -0.13195   0.31611  -0.52790  -0.10442   0.74247
  48        2S          0.00264  -0.00550   0.00919   0.00089  -0.00666
  49        3S         -0.00483   0.01233  -0.02056  -0.00507   0.03219
  50        4S         -0.00571   0.00277  -0.00511   0.00573  -0.01223
  51        5S         -0.00036   0.00124  -0.00218   0.00149  -0.00228
  52        6PX         0.00000   0.00000   0.00000   0.00000   0.00000
  53        6PY         0.00028   0.00211   0.00125  -0.00001  -0.00002
  54        6PZ        -0.00034   0.00033  -0.00052   0.00096  -0.00197
  55        7PX         0.00000   0.00000   0.00000   0.00000   0.00000
  56        7PY        -0.00005  -0.00030  -0.00019   0.00000   0.00011
  57        7PZ        -0.00066   0.00062  -0.00119   0.00086   0.00501
  58        8PX         0.00000   0.00000   0.00000   0.00000   0.00000
  59        8PY        -0.00100  -0.00002  -0.00012   0.00003   0.00004
  60        8PZ         0.00219  -0.00085   0.00149  -0.00103   0.00412
  61        9PX         0.00000   0.00000   0.00000   0.00000   0.00000
  62        9PY         0.00045   0.00121   0.00072   0.00000  -0.00001
  63        9PZ        -0.00026  -0.00007   0.00010   0.00017   0.00017
  64       10D 0       -0.00006   0.00013  -0.00022   0.00008   0.00070
  65       10D+1        0.00000   0.00000   0.00000   0.00000   0.00000
  66       10D-1        0.00000  -0.00010  -0.00007   0.00000   0.00001
  67       10D+2        0.00006  -0.00006   0.00010   0.00003  -0.00016
  68       10D-2        0.00000   0.00000   0.00000   0.00000   0.00000
  69       11D 0       -0.00021  -0.00004  -0.00003   0.00093   0.00102
  70       11D+1        0.00000   0.00000   0.00000   0.00000   0.00000
  71       11D-1        0.00059   0.00236   0.00141   0.00000  -0.00004
  72       11D+2        0.00082  -0.00028   0.00049  -0.00112   0.00329
  73       11D-2        0.00000   0.00000   0.00000   0.00000   0.00000
  74       12D 0       -0.00012   0.00020  -0.00039  -0.00006  -0.00066
  75       12D+1        0.00000   0.00000   0.00000   0.00000   0.00000
  76       12D-1        0.00089   0.00222   0.00132   0.00000  -0.00003
  77       12D+2        0.00070  -0.00055   0.00091  -0.00085   0.00113
  78       12D-2        0.00000   0.00000   0.00000   0.00000   0.00000
  79       13F 0       -0.00014   0.00013  -0.00026  -0.00014   0.00038
  80       13F+1        0.00000   0.00000   0.00000   0.00000   0.00000
  81       13F-1       -0.00001  -0.00005  -0.00005   0.00000   0.00000
  82       13F+2       -0.00002  -0.00007   0.00008  -0.00007  -0.00008
  83       13F-2        0.00000   0.00000   0.00000   0.00000   0.00000
  84       13F+3        0.00000   0.00000   0.00000   0.00000   0.00000
  85       13F-3        0.00000  -0.00003  -0.00001   0.00000   0.00000
  86       14F 0        0.00020  -0.00057   0.00092   0.00088  -0.00090
  87       14F+1        0.00000   0.00000   0.00000   0.00000   0.00000
  88       14F-1        0.00017   0.00135   0.00075   0.00002   0.00000
  89       14F+2       -0.00006  -0.00034   0.00049   0.00035  -0.00098
  90       14F-2        0.00000   0.00000   0.00000   0.00000   0.00000
  91       14F+3        0.00000   0.00000   0.00000   0.00000   0.00000
  92       14F-3        0.00017   0.00067   0.00041  -0.00001   0.00001
  93 3   Cl 1S         -0.09005  -0.14409   0.02156  -0.03772   0.03638
  94        2S          0.30363   0.48984  -0.07478   0.12873  -0.12420
  95        3S         -0.00914  -0.00822   0.00065  -0.00157   0.00084
  96        4S          0.02369   0.04048  -0.00577   0.01084  -0.01113
  97        5S         -0.00126  -0.00771   0.00046  -0.00353   0.00823
  98        6S          0.00046   0.00197   0.00223  -0.00078   0.00227
  99        7PX         0.00000   0.00000   0.00000   0.00000   0.00000
 100        7PY        -0.14878   0.58297  -0.05463   0.21924  -0.30907
 101        7PZ        -0.06241   0.38322  -0.00082   0.13803  -0.18549
 102        8PX         0.00000   0.00000   0.00000   0.00000   0.00000
 103        8PY         0.00241  -0.00983   0.00013  -0.00331   0.00520
 104        8PZ         0.00087  -0.00692  -0.00065  -0.00216   0.00368
 105        9PX         0.00000   0.00000   0.00000   0.00000   0.00000
 106        9PY        -0.00847   0.03556  -0.00331   0.01365  -0.01982
 107        9PZ        -0.00359   0.02353   0.00002   0.00860  -0.01206
 108       10PX         0.00000   0.00000   0.00000   0.00000   0.00000
 109       10PY         0.00138  -0.00058   0.00092  -0.00093   0.00312
 110       10PZ         0.00055  -0.00067   0.00009  -0.00098   0.00222
 111       11PX         0.00000   0.00000   0.00000   0.00000   0.00000
 112       11PY        -0.00004   0.00006   0.00009  -0.00005   0.00020
 113       11PZ         0.00015   0.00021   0.00017  -0.00016   0.00019
 114       12D 0       -0.00003   0.00002   0.00000   0.00002  -0.00001
 115       12D+1        0.00000   0.00000   0.00000   0.00000   0.00000
 116       12D-1        0.00010   0.00049   0.00000   0.00025  -0.00035
 117       12D+2       -0.00006  -0.00039   0.00003  -0.00014   0.00022
 118       12D-2        0.00000   0.00000   0.00000   0.00000   0.00000
 119       13D 0       -0.00015  -0.00038  -0.00033   0.00008   0.00007
 120       13D+1        0.00000   0.00000   0.00000   0.00000   0.00000
 121       13D-1        0.00010  -0.00240  -0.00037  -0.00090   0.00214
 122       13D+2       -0.00028   0.00158  -0.00029   0.00064  -0.00133
 123       13D-2        0.00000   0.00000   0.00000   0.00000   0.00000
 124       14D 0       -0.00006  -0.00007  -0.00009  -0.00009   0.00008
 125       14D+1        0.00000   0.00000   0.00000   0.00000   0.00000
 126       14D-1        0.00016   0.00024  -0.00015  -0.00015   0.00066
 127       14D+2       -0.00037  -0.00057  -0.00038   0.00007  -0.00053
 128       14D-2        0.00000   0.00000   0.00000   0.00000   0.00000
 129       15F 0       -0.00001   0.00001  -0.00004  -0.00002   0.00002
 130       15F+1        0.00000   0.00000   0.00000   0.00000   0.00000
 131       15F-1        0.00000  -0.00007  -0.00002   0.00004  -0.00002
 132       15F+2        0.00000   0.00005  -0.00001  -0.00004  -0.00001
 133       15F-2        0.00000   0.00000   0.00000   0.00000   0.00000
 134       15F+3        0.00000   0.00000   0.00000   0.00000   0.00000
 135       15F-3       -0.00002   0.00005  -0.00005   0.00003  -0.00005
 136       16F 0        0.00002   0.00021   0.00020   0.00014  -0.00034
 137       16F+1        0.00000   0.00000   0.00000   0.00000   0.00000
 138       16F-1       -0.00005  -0.00041  -0.00024  -0.00014   0.00039
 139       16F+2       -0.00006   0.00061   0.00014   0.00029  -0.00061
 140       16F-2        0.00000   0.00000   0.00000   0.00000   0.00000
 141       16F+3        0.00000   0.00000   0.00000   0.00000   0.00000
 142       16F-3       -0.00008   0.00026  -0.00009   0.00007  -0.00024
 143 4   Cl 1S         -0.23382   0.04836   0.13416  -0.03798   0.03516
 144        2S          0.78897  -0.16309  -0.45664   0.12953  -0.11996
 145        3S         -0.02340   0.00325   0.00734  -0.00158   0.00077
 146        4S          0.06135  -0.01384  -0.03756   0.01091  -0.01076
 147        5S         -0.00225   0.00330   0.00696  -0.00354   0.00797
 148        6S         -0.00087  -0.00282  -0.00066  -0.00076   0.00222
 149        7PX         0.00000   0.00000   0.00000   0.00000   0.00000
 150        7PY         0.39657   0.23245   0.54735  -0.22592   0.30842
 151        7PZ        -0.23382  -0.17889  -0.33539   0.13995  -0.18184
 152        8PX         0.00000   0.00000   0.00000   0.00000   0.00000
 153        8PY        -0.00717  -0.00462  -0.00879   0.00342  -0.00513
 154        8PZ         0.00430   0.00382   0.00568  -0.00217   0.00357
 155        9PX         0.00000   0.00000   0.00000   0.00000   0.00000
 156        9PY         0.02256   0.01420   0.03337  -0.01406   0.01977
 157        9PZ        -0.01335  -0.01105  -0.02055   0.00871  -0.01181
 158       10PX         0.00000   0.00000   0.00000   0.00000   0.00000
 159       10PY        -0.00270   0.00045  -0.00097   0.00094  -0.00305
 160       10PZ         0.00160   0.00024   0.00061  -0.00097   0.00216
 161       11PX         0.00000   0.00000   0.00000   0.00000   0.00000
 162       11PY        -0.00009   0.00011   0.00000   0.00005  -0.00020
 163       11PZ         0.00007  -0.00023  -0.00009  -0.00015   0.00018
 164       12D 0       -0.00007  -0.00001  -0.00001   0.00001   0.00000
 165       12D+1        0.00000   0.00000   0.00000   0.00000   0.00000
 166       12D-1       -0.00021   0.00023   0.00043  -0.00024   0.00034
 167       12D+2       -0.00011   0.00015   0.00036  -0.00014   0.00022
 168       12D-2        0.00000   0.00000   0.00000   0.00000   0.00000
 169       13D 0        0.00003   0.00044   0.00012   0.00009   0.00005
 170       13D+1        0.00000   0.00000   0.00000   0.00000   0.00000
 171       13D-1       -0.00058  -0.00147  -0.00189   0.00091  -0.00208
 172       13D+2       -0.00057  -0.00051  -0.00153   0.00066  -0.00131
 173       13D-2        0.00000   0.00000   0.00000   0.00000   0.00000
 174       14D 0       -0.00010   0.00010   0.00000  -0.00008   0.00007
 175       14D+1        0.00000   0.00000   0.00000   0.00000   0.00000
 176       14D-1       -0.00038  -0.00001   0.00029   0.00015  -0.00064
 177       14D+2       -0.00025   0.00059   0.00033   0.00006  -0.00052
 178       14D-2        0.00000   0.00000   0.00000   0.00000   0.00000
 179       15F 0        0.00001   0.00002  -0.00002  -0.00002   0.00002
 180       15F+1        0.00000   0.00000   0.00000   0.00000   0.00000
 181       15F-1       -0.00001  -0.00005  -0.00004  -0.00004   0.00002
 182       15F+2        0.00000  -0.00002  -0.00004  -0.00004  -0.00001
 183       15F-2        0.00000   0.00000   0.00000   0.00000   0.00000
 184       15F+3        0.00000   0.00000   0.00000   0.00000   0.00000
 185       15F-3        0.00003  -0.00001   0.00007  -0.00003   0.00006
 186       16F 0       -0.00009  -0.00028  -0.00010   0.00014  -0.00034
 187       16F+1        0.00000   0.00000   0.00000   0.00000   0.00000
 188       16F-1       -0.00007  -0.00040  -0.00023   0.00013  -0.00037
 189       16F+2       -0.00023  -0.00041  -0.00045   0.00029  -0.00060
 190       16F-2        0.00000   0.00000   0.00000   0.00000   0.00000
 191       16F+3        0.00000   0.00000   0.00000   0.00000   0.00000
 192       16F-3        0.00012   0.00004   0.00027  -0.00008   0.00024
                          11        12        13        14        15
     Eigenvalues --     2.00000   2.00000   1.98120   1.97616   1.97460
   1 1   O  1S          0.00003   0.00001  -0.18605  -0.06286   0.00152
   2        2S          0.00001   0.00000   0.48174   0.17006  -0.00408
   3        3S          0.00000   0.00000   0.13549   0.04886  -0.00119
   4        4S          0.00003   0.00000   0.29381   0.13438  -0.00297
   5        5S          0.00004   0.00000   0.01959   0.02323  -0.00045
   6        6PX         0.00000   0.00000   0.00000   0.00000   0.00000
   7        6PY         0.00000   0.00000   0.00013   0.00137   0.04392
   8        6PZ         0.00000   0.00000  -0.00872   0.02882  -0.00135
   9        7PX         0.00000   0.00000   0.00000   0.00000   0.00000
  10        7PY         0.00000   0.00001   0.00013   0.00155   0.05466
  11        7PZ         0.00000   0.00000  -0.01518   0.03060  -0.00162
  12        8PX         0.00000   0.00000   0.00000   0.00000   0.00000
  13        8PY         0.00000   0.00006   0.00066   0.00096   0.04000
  14        8PZ         0.00003   0.00000   0.04928   0.02586  -0.00127
  15        9PX         0.00000   0.00000   0.00000   0.00000   0.00000
  16        9PY         0.00000   0.00001   0.00018  -0.00011   0.00091
  17        9PZ         0.00000   0.00000   0.01375  -0.00042  -0.00004
  18       10D 0        0.00000   0.00000   0.00496   0.00003   0.00005
  19       10D+1        0.00000   0.00000   0.00000   0.00000   0.00000
  20       10D-1        0.00000   0.00000   0.00007  -0.00006  -0.00210
  21       10D+2        0.00000   0.00000  -0.00001  -0.00002   0.00001
  22       10D-2        0.00000   0.00000   0.00000   0.00000   0.00000
  23       11D 0       -0.00001   0.00000   0.01088   0.00141   0.00011
  24       11D+1        0.00000   0.00000   0.00000   0.00000   0.00000
  25       11D-1        0.00000   0.00000   0.00012   0.00000  -0.00534
  26       11D+2        0.00000   0.00000   0.00026   0.00100   0.00004
  27       11D-2        0.00000   0.00000   0.00000   0.00000   0.00000
  28       12D 0       -0.00002   0.00000  -0.01505  -0.00335   0.00017
  29       12D+1        0.00000   0.00000   0.00000   0.00000   0.00000
  30       12D-1        0.00000  -0.00002  -0.00023  -0.00008  -0.00400
  31       12D+2        0.00000   0.00000   0.00142   0.00136   0.00007
  32       12D-2        0.00000   0.00000   0.00000   0.00000   0.00000
  33       13F 0        0.00000   0.00000  -0.00275  -0.00032  -0.00003
  34       13F+1        0.00000   0.00000   0.00000   0.00000   0.00000
  35       13F-1        0.00000   0.00000  -0.00005   0.00002   0.00147
  36       13F+2        0.00000   0.00000   0.00021  -0.00005  -0.00002
  37       13F-2        0.00000   0.00000   0.00000   0.00000   0.00000
  38       13F+3        0.00000   0.00000   0.00000   0.00000   0.00000
  39       13F-3        0.00000   0.00000   0.00000   0.00000   0.00008
  40       14F 0        0.00000   0.00000  -0.00009  -0.00057  -0.00002
  41       14F+1        0.00000   0.00000   0.00000   0.00000   0.00000
  42       14F-1        0.00000   0.00000   0.00002  -0.00007   0.00015
  43       14F+2        0.00000   0.00000  -0.00069  -0.00104  -0.00003
  44       14F-2        0.00000   0.00000   0.00000   0.00000   0.00000
  45       14F+3        0.00000   0.00000   0.00000   0.00000   0.00000
  46       14F-3        0.00000   0.00000  -0.00001  -0.00001   0.00044
  47 2   C  1S         -0.00030   0.00000  -0.08435   0.04576  -0.00070
  48        2S          0.00003   0.00000   0.19424  -0.12666   0.00193
  49        3S          0.00002   0.00000   0.04627  -0.02637   0.00034
  50        4S         -0.00013  -0.00001   0.00268  -0.05552   0.00082
  51        5S         -0.00005   0.00000  -0.00446  -0.02445   0.00060
  52        6PX         0.00000   0.00000   0.00000   0.00000   0.00000
  53        6PY         0.00000  -0.00001   0.00030   0.00311   0.07147
  54        6PZ        -0.00001   0.00000   0.06358   0.05730  -0.00103
  55        7PX         0.00000   0.00000   0.00000   0.00000   0.00000
  56        7PY         0.00000   0.00004  -0.00012   0.00401   0.09685
  57        7PZ         0.00005   0.00000   0.04902   0.06670  -0.00147
  58        8PX         0.00000   0.00000   0.00000   0.00000   0.00000
  59        8PY         0.00000  -0.00009  -0.00087  -0.00025  -0.00731
  60        8PZ        -0.00001   0.00000  -0.01846  -0.00345  -0.00016
  61        9PX         0.00000   0.00000   0.00000   0.00000   0.00000
  62        9PY         0.00000  -0.00001  -0.00030   0.00027   0.00604
  63        9PZ         0.00000   0.00000  -0.00732   0.00328  -0.00012
  64       10D 0        0.00000   0.00000   0.01556   0.00259  -0.00011
  65       10D+1        0.00000   0.00000   0.00000   0.00000   0.00000
  66       10D-1        0.00000   0.00000   0.00033  -0.00037  -0.00591
  67       10D+2        0.00000   0.00000  -0.00266   0.00660  -0.00011
  68       10D-2        0.00000   0.00000   0.00000   0.00000   0.00000
  69       11D 0       -0.00001   0.00000   0.00615  -0.00226  -0.00015
  70       11D+1        0.00000   0.00000   0.00000   0.00000   0.00000
  71       11D-1        0.00000  -0.00007   0.00033  -0.00067  -0.01927
  72       11D+2        0.00005   0.00000  -0.00326   0.01160  -0.00034
  73       11D-2        0.00000   0.00000   0.00000   0.00000   0.00000
  74       12D 0       -0.00003   0.00000  -0.02000  -0.00788   0.00016
  75       12D+1        0.00000   0.00000   0.00000   0.00000   0.00000
  76       12D-1        0.00000  -0.00001  -0.00033   0.00026   0.00451
  77       12D+2        0.00001   0.00000  -0.00112  -0.00272   0.00000
  78       12D-2        0.00000   0.00000   0.00000   0.00000   0.00000
  79       13F 0        0.00000   0.00000   0.00592  -0.00204  -0.00002
  80       13F+1        0.00000   0.00000   0.00000   0.00000   0.00000
  81       13F-1        0.00000   0.00000   0.00006   0.00019   0.00231
  82       13F+2       -0.00001   0.00000   0.00257  -0.00426   0.00004
  83       13F-2        0.00000   0.00000   0.00000   0.00000   0.00000
  84       13F+3        0.00000   0.00000   0.00000   0.00000   0.00000
  85       13F-3        0.00000  -0.00001   0.00003  -0.00010  -0.00265
  86       14F 0       -0.00003   0.00000  -0.00661  -0.00482   0.00014
  87       14F+1        0.00000   0.00000   0.00000   0.00000   0.00000
  88       14F-1        0.00000  -0.00001  -0.00022   0.00006   0.00139
  89       14F+2       -0.00003   0.00000  -0.00283  -0.00584   0.00013
  90       14F-2        0.00000   0.00000   0.00000   0.00000   0.00000
  91       14F+3        0.00000   0.00000   0.00000   0.00000   0.00000
  92       14F-3        0.00000  -0.00001  -0.00002  -0.00002   0.00003
  93 3   Cl 1S          0.68244   0.72710   0.01130  -0.04923  -0.05056
  94        2S          0.00675   0.00736  -0.04098   0.18459   0.18910
  95        3S          0.00011   0.00012   0.09266  -0.39291  -0.40524
  96        4S          0.00014   0.00016   0.01052  -0.04834  -0.05092
  97        5S          0.00001  -0.00006   0.04978  -0.23289  -0.24878
  98        6S          0.00002  -0.00006  -0.00386   0.01147   0.00577
  99        7PX         0.00000   0.00000   0.00000   0.00000   0.00000
 100        7PY        -0.00084  -0.00048  -0.00754   0.01546   0.00049
 101        7PZ        -0.00045  -0.00037  -0.00936   0.00211   0.00842
 102        8PX         0.00000   0.00000   0.00000   0.00000   0.00000
 103        8PY         0.00007   0.00007   0.01285  -0.02045   0.01626
 104        8PZ         0.00005   0.00005   0.02332   0.00954  -0.01171
 105        9PX         0.00000   0.00000   0.00000   0.00000   0.00000
 106        9PY        -0.00008  -0.00006   0.00613  -0.00974   0.00658
 107        9PZ        -0.00005  -0.00005   0.01008   0.00339  -0.00550
 108       10PX         0.00000   0.00000   0.00000   0.00000   0.00000
 109       10PY         0.00000  -0.00006   0.00264   0.00283   0.01618
 110       10PZ        -0.00001  -0.00004   0.00236   0.00955  -0.00125
 111       11PX         0.00000   0.00000   0.00000   0.00000   0.00000
 112       11PY         0.00000  -0.00001  -0.00130   0.00387   0.00207
 113       11PZ         0.00000  -0.00001   0.00089   0.00176   0.00260
 114       12D 0        0.00000   0.00000   0.00036   0.00141  -0.00103
 115       12D+1        0.00000   0.00000   0.00000   0.00000   0.00000
 116       12D-1        0.00000   0.00001   0.00354  -0.00621  -0.00589
 117       12D+2        0.00000   0.00000  -0.00271   0.00568   0.00291
 118       12D-2        0.00000   0.00000   0.00000   0.00000   0.00000
 119       13D 0        0.00000   0.00000  -0.00041   0.00203  -0.00260
 120       13D+1        0.00000   0.00000   0.00000   0.00000   0.00000
 121       13D-1        0.00003   0.00002   0.00375  -0.00533  -0.00476
 122       13D+2       -0.00001  -0.00001  -0.00128   0.00608   0.00111
 123       13D-2        0.00000   0.00000   0.00000   0.00000   0.00000
 124       14D 0        0.00000   0.00000  -0.00005  -0.00057  -0.00068
 125       14D+1        0.00000   0.00000   0.00000   0.00000   0.00000
 126       14D-1       -0.00001  -0.00002  -0.00210   0.00154   0.00193
 127       14D+2        0.00001   0.00002  -0.00080  -0.00210  -0.00295
 128       14D-2        0.00000   0.00000   0.00000   0.00000   0.00000
 129       15F 0        0.00000   0.00000  -0.00032   0.00146   0.00083
 130       15F+1        0.00000   0.00000   0.00000   0.00000   0.00000
 131       15F-1        0.00000   0.00000   0.00041  -0.00031  -0.00168
 132       15F+2       -0.00001   0.00000  -0.00077   0.00234   0.00219
 133       15F-2        0.00000   0.00000   0.00000   0.00000   0.00000
 134       15F+3        0.00000   0.00000   0.00000   0.00000   0.00000
 135       15F-3        0.00000   0.00000  -0.00060   0.00187   0.00079
 136       16F 0        0.00000   0.00000  -0.00042   0.00008  -0.00051
 137       16F+1        0.00000   0.00000   0.00000   0.00000   0.00000
 138       16F-1        0.00000   0.00000  -0.00025   0.00023  -0.00025
 139       16F+2        0.00000   0.00000   0.00021   0.00017  -0.00103
 140       16F-2        0.00000   0.00000   0.00000   0.00000   0.00000
 141       16F+3        0.00000   0.00000   0.00000   0.00000   0.00000
 142       16F-3        0.00000   0.00000   0.00100   0.00002  -0.00074
 143 4   Cl 1S          0.72713  -0.68239   0.01109  -0.04599   0.05371
 144        2S          0.00724  -0.00696  -0.04023   0.17252  -0.20092
 145        3S          0.00011  -0.00011   0.09085  -0.36709   0.43040
 146        4S          0.00016  -0.00016   0.01023  -0.04513   0.05402
 147        5S          0.00000   0.00006   0.04992  -0.21824   0.26498
 148        6S          0.00001   0.00007  -0.00239   0.01032  -0.00596
 149        7PX         0.00000   0.00000   0.00000   0.00000   0.00000
 150        7PY         0.00085  -0.00038   0.00731  -0.01473   0.00104
 151        7PZ        -0.00045   0.00031  -0.00909   0.00108  -0.00796
 152        8PX         0.00000   0.00000   0.00000   0.00000   0.00000
 153        8PY        -0.00007   0.00006  -0.01294   0.02043   0.01515
 154        8PZ         0.00005  -0.00004   0.02286   0.01074   0.01041
 155        9PX         0.00000   0.00000   0.00000   0.00000   0.00000
 156        9PY         0.00008  -0.00005  -0.00587   0.00951   0.00634
 157        9PZ        -0.00005   0.00004   0.00983   0.00409   0.00481
 158       10PX         0.00000   0.00000   0.00000   0.00000   0.00000
 159       10PY         0.00001  -0.00007  -0.00355  -0.00164   0.01588
 160       10PZ        -0.00002   0.00004   0.00310   0.00962   0.00056
 161       11PX         0.00000   0.00000   0.00000   0.00000   0.00000
 162       11PY         0.00000  -0.00001   0.00120  -0.00370   0.00234
 163       11PZ         0.00000   0.00000   0.00106   0.00158  -0.00267
 164       12D 0        0.00000   0.00000   0.00035   0.00149   0.00084
 165       12D+1        0.00000   0.00000   0.00000   0.00000   0.00000
 166       12D-1        0.00000   0.00001  -0.00339   0.00550  -0.00594
 167       12D+2        0.00000   0.00000  -0.00263   0.00529  -0.00313
 168       12D-2        0.00000   0.00000   0.00000   0.00000   0.00000
 169       13D 0        0.00000   0.00000  -0.00054   0.00222   0.00229
 170       13D+1        0.00000   0.00000   0.00000   0.00000   0.00000
 171       13D-1       -0.00003   0.00002  -0.00383   0.00485  -0.00499
 172       13D+2       -0.00001   0.00001  -0.00150   0.00594  -0.00156
 173       13D-2        0.00000   0.00000   0.00000   0.00000   0.00000
 174       14D 0        0.00000   0.00000   0.00002  -0.00051   0.00067
 175       14D+1        0.00000   0.00000   0.00000   0.00000   0.00000
 176       14D-1        0.00001  -0.00002   0.00185  -0.00132   0.00187
 177       14D+2        0.00001  -0.00002  -0.00102  -0.00179   0.00294
 178       14D-2        0.00000   0.00000   0.00000   0.00000   0.00000
 179       15F 0        0.00000   0.00000  -0.00033   0.00134  -0.00088
 180       15F+1        0.00000   0.00000   0.00000   0.00000   0.00000
 181       15F-1        0.00000   0.00000  -0.00040   0.00014  -0.00157
 182       15F+2       -0.00001   0.00000  -0.00076   0.00207  -0.00222
 183       15F-2        0.00000   0.00000   0.00000   0.00000   0.00000
 184       15F+3        0.00000   0.00000   0.00000   0.00000   0.00000
 185       15F-3        0.00000   0.00000   0.00059  -0.00175   0.00088
 186       16F 0        0.00000   0.00000  -0.00045   0.00013   0.00045
 187       16F+1        0.00000   0.00000   0.00000   0.00000   0.00000
 188       16F-1        0.00000   0.00000   0.00027  -0.00025  -0.00025
 189       16F+2        0.00000   0.00000   0.00012   0.00027   0.00096
 190       16F-2        0.00000   0.00000   0.00000   0.00000   0.00000
 191       16F+3        0.00000   0.00000   0.00000   0.00000   0.00000
 192       16F-3        0.00000   0.00000  -0.00090  -0.00014  -0.00070
                          16        17        18        19        20
     Eigenvalues --     1.96277   1.95785   1.95159   1.94905   1.94744
   1 1   O  1S          0.03971   0.00007  -0.00844   0.00000  -0.00537
   2        2S         -0.12878  -0.00003   0.02177   0.00000   0.01452
   3        3S         -0.04226  -0.00002   0.00680   0.00000   0.00411
   4        4S         -0.23869   0.00032   0.02419   0.00000   0.00583
   5        5S         -0.05962  -0.00029   0.02431   0.00000   0.00007
   6        6PX         0.00000   0.00000   0.00000   0.02761   0.00000
   7        6PY        -0.00293   0.29825   0.00152   0.00000   0.10843
   8        6PZ        -0.29528  -0.00391  -0.00757   0.00000  -0.02029
   9        7PX         0.00000   0.00000   0.00000   0.03494   0.00000
  10        7PY        -0.00350   0.37038   0.00201   0.00000   0.13248
  11        7PZ        -0.34964  -0.00491  -0.01063   0.00000  -0.02468
  12        8PX         0.00000   0.00000   0.00000   0.01728   0.00000
  13        8PY        -0.00158   0.27124   0.00153   0.00000   0.09231
  14        8PZ        -0.15252  -0.00327  -0.00031   0.00000  -0.00829
  15        9PX         0.00000   0.00000   0.00000  -0.01198   0.00000
  16        9PY        -0.00003   0.03765   0.00010   0.00000   0.01479
  17        9PZ         0.00122  -0.00016   0.00063   0.00000   0.00046
  18       10D 0        0.01320   0.00020   0.00021   0.00000   0.00095
  19       10D+1        0.00000   0.00000   0.00000  -0.00313   0.00000
  20       10D-1        0.00022  -0.00899  -0.00005   0.00000  -0.00196
  21       10D+2       -0.00002   0.00008   0.00058   0.00000   0.00003
  22       10D-2        0.00000   0.00000   0.00000  -0.00002   0.00000
  23       11D 0        0.02658   0.00052   0.00139   0.00000   0.00180
  24       11D+1        0.00000   0.00000   0.00000  -0.00874   0.00000
  25       11D-1        0.00049  -0.02620  -0.00028   0.00000  -0.00244
  26       11D+2        0.00116   0.00031   0.00047   0.00000   0.00044
  27       11D-2        0.00000   0.00000   0.00000  -0.00008   0.00000
  28       12D 0       -0.00324   0.00021  -0.00115   0.00000  -0.00241
  29       12D+1        0.00000   0.00000   0.00000  -0.00698   0.00000
  30       12D-1        0.00002  -0.01711  -0.00023   0.00000  -0.00140
  31       12D+2        0.00218   0.00030   0.00223   0.00000   0.00035
  32       12D-2        0.00000   0.00000   0.00000  -0.00004   0.00000
  33       13F 0       -0.00481  -0.00014  -0.00004   0.00000  -0.00039
  34       13F+1        0.00000   0.00000   0.00000   0.00166   0.00000
  35       13F-1       -0.00013   0.00561   0.00006   0.00000   0.00091
  36       13F+2       -0.00068  -0.00009  -0.00016   0.00000  -0.00011
  37       13F-2        0.00000   0.00000   0.00000   0.00003   0.00000
  38       13F+3        0.00000   0.00000   0.00000  -0.00001   0.00000
  39       13F-3       -0.00001   0.00091   0.00001   0.00000   0.00045
  40       14F 0       -0.00410  -0.00010  -0.00024   0.00000  -0.00036
  41       14F+1        0.00000   0.00000   0.00000   0.00110   0.00000
  42       14F-1       -0.00012   0.00423   0.00009   0.00000  -0.00011
  43       14F+2       -0.00163  -0.00017   0.00032   0.00000  -0.00044
  44       14F-2        0.00000   0.00000   0.00000   0.00004   0.00000
  45       14F+3        0.00000   0.00000   0.00000   0.00073   0.00000
  46       14F-3       -0.00002   0.00101   0.00002   0.00000   0.00012
  47 2   C  1S         -0.11378   0.00030  -0.03596   0.00000   0.01497
  48        2S          0.30981  -0.00090   0.10106   0.00000  -0.04281
  49        3S          0.08111  -0.00002   0.02502   0.00000  -0.00923
  50        4S          0.10673  -0.00381   0.05275   0.00000  -0.03196
  51        5S          0.00865  -0.00097   0.01334   0.00000  -0.00444
  52        6PX         0.00000   0.00000   0.00000   0.11090   0.00000
  53        6PY         0.00084   0.14454   0.00130   0.00000   0.01598
  54        6PZ         0.14800   0.00018  -0.04933   0.00000   0.03360
  55        7PX         0.00000   0.00000   0.00000   0.15306   0.00000
  56        7PY         0.00040   0.18810   0.00157   0.00000   0.02418
  57        7PZ         0.15694   0.00019  -0.07113   0.00000   0.04344
  58        8PX         0.00000   0.00000   0.00000   0.04538   0.00000
  59        8PY        -0.00068   0.01623   0.00002   0.00000   0.00498
  60        8PZ        -0.00187   0.00049  -0.02649   0.00000   0.00629
  61        9PX         0.00000   0.00000   0.00000   0.01279   0.00000
  62        9PY        -0.00020  -0.00873   0.00019   0.00000  -0.00976
  63        9PZ        -0.00250   0.00011  -0.01084   0.00000  -0.00115
  64       10D 0        0.01573  -0.00014   0.01077   0.00000   0.00221
  65       10D+1        0.00000   0.00000   0.00000  -0.00465   0.00000
  66       10D-1        0.00018   0.02075   0.00028   0.00000   0.00371
  67       10D+2        0.00003  -0.00002   0.00397   0.00000   0.00171
  68       10D-2        0.00000   0.00000   0.00000  -0.00017   0.00000
  69       11D 0        0.00135  -0.00070   0.03299   0.00000   0.00128
  70       11D+1        0.00000   0.00000   0.00000  -0.02721   0.00000
  71       11D-1        0.00024   0.01994  -0.00003   0.00000   0.00252
  72       11D+2       -0.00443   0.00008   0.01549   0.00000   0.00333
  73       11D-2        0.00000   0.00000   0.00000  -0.00023   0.00000
  74       12D 0        0.00024   0.00019  -0.02336   0.00000  -0.00551
  75       12D+1        0.00000   0.00000   0.00000  -0.00823   0.00000
  76       12D-1        0.00030  -0.01541  -0.00018   0.00000   0.01375
  77       12D+2        0.00441   0.00068  -0.01757   0.00000  -0.00126
  78       12D-2        0.00000   0.00000   0.00000   0.00005   0.00000
  79       13F 0        0.00919  -0.00019  -0.00069   0.00000   0.00002
  80       13F+1        0.00000   0.00000   0.00000   0.00252   0.00000
  81       13F-1        0.00021   0.00512  -0.00015   0.00000   0.00844
  82       13F+2        0.00173  -0.00020   0.00173   0.00000  -0.00123
  83       13F-2        0.00000   0.00000   0.00000   0.00015   0.00000
  84       13F+3        0.00000   0.00000   0.00000  -0.00482   0.00000
  85       13F-3        0.00004  -0.00291  -0.00004   0.00000   0.00145
  86       14F 0       -0.01002  -0.00019  -0.00458   0.00000  -0.00258
  87       14F+1        0.00000   0.00000   0.00000  -0.00050   0.00000
  88       14F-1       -0.00040   0.00158   0.00009   0.00000   0.01411
  89       14F+2       -0.00323  -0.00028  -0.00099   0.00000  -0.00129
  90       14F-2        0.00000   0.00000   0.00000  -0.00008   0.00000
  91       14F+3        0.00000   0.00000   0.00000  -0.00312   0.00000
  92       14F-3       -0.00007   0.00077   0.00002   0.00000   0.00341
  93 3   Cl 1S         -0.01204   0.01517  -0.01042   0.00000   0.00159
  94        2S          0.04663  -0.05775   0.03961   0.00000  -0.00582
  95        3S         -0.09505   0.12407  -0.08597   0.00000   0.01471
  96        4S         -0.01273   0.01719  -0.01345   0.00000   0.00198
  97        5S         -0.08124   0.12114  -0.08132   0.00000   0.01608
  98        6S         -0.00859   0.00861  -0.02248   0.00000  -0.00745
  99        7PX         0.00000   0.00000   0.00000  -0.14775   0.00000
 100        7PY        -0.00336   0.00535  -0.10835   0.00000   0.10268
 101        7PZ        -0.01511   0.04410   0.10859   0.00000  -0.11571
 102        8PX         0.00000   0.00000   0.00000   0.34816   0.00000
 103        8PY         0.00380   0.00079   0.25025   0.00000  -0.23579
 104        8PZ         0.03298  -0.09601  -0.25954   0.00000   0.27834
 105        9PX         0.00000   0.00000   0.00000   0.16254   0.00000
 106        9PY         0.00386  -0.00411   0.11829   0.00000  -0.11404
 107        9PZ         0.01704  -0.04813  -0.12420   0.00000   0.13140
 108       10PX         0.00000   0.00000   0.00000   0.19480   0.00000
 109       10PY        -0.01602   0.02994   0.12903   0.00000  -0.13602
 110       10PZ         0.00614  -0.03723  -0.17600   0.00000   0.17863
 111       11PX         0.00000   0.00000   0.00000   0.00051   0.00000
 112       11PY        -0.00087   0.00438   0.00033   0.00000  -0.00520
 113       11PZ        -0.00001   0.00273  -0.00729   0.00000   0.00983
 114       12D 0        0.00326  -0.00575  -0.00710   0.00000   0.00174
 115       12D+1        0.00000   0.00000   0.00000   0.00575   0.00000
 116       12D-1        0.00569  -0.01052   0.00158   0.00000  -0.00517
 117       12D+2       -0.00094   0.00452  -0.00954   0.00000   0.00368
 118       12D-2        0.00000   0.00000   0.00000   0.01087   0.00000
 119       13D 0        0.00238  -0.00877  -0.00862   0.00000   0.00016
 120       13D+1        0.00000   0.00000   0.00000   0.00845   0.00000
 121       13D-1        0.00528  -0.00684   0.00111   0.00000  -0.00420
 122       13D+2        0.00184   0.00045  -0.01154   0.00000   0.00169
 123       13D-2        0.00000   0.00000   0.00000   0.01653   0.00000
 124       14D 0        0.00242  -0.00600  -0.00808   0.00000   0.00078
 125       14D+1        0.00000   0.00000   0.00000   0.00179   0.00000
 126       14D-1       -0.00038  -0.00156  -0.00333   0.00000   0.00049
 127       14D+2        0.00323  -0.00292  -0.00570   0.00000  -0.00028
 128       14D-2        0.00000   0.00000   0.00000   0.00522   0.00000
 129       15F 0        0.00037  -0.00024  -0.00203   0.00000   0.00166
 130       15F+1        0.00000   0.00000   0.00000   0.00055   0.00000
 131       15F-1        0.00147  -0.00366  -0.00405   0.00000   0.00233
 132       15F+2       -0.00032   0.00233  -0.00136   0.00000   0.00168
 133       15F-2        0.00000   0.00000   0.00000   0.00448   0.00000
 134       15F+3        0.00000   0.00000   0.00000  -0.00437   0.00000
 135       15F-3        0.00035   0.00052  -0.00324   0.00000   0.00175
 136       16F 0       -0.00158  -0.00140  -0.00050   0.00000  -0.00053
 137       16F+1        0.00000   0.00000   0.00000  -0.00046   0.00000
 138       16F-1       -0.00013  -0.00046  -0.00205   0.00000   0.00138
 139       16F+2       -0.00017  -0.00215  -0.00056   0.00000  -0.00057
 140       16F-2        0.00000   0.00000   0.00000   0.00219   0.00000
 141       16F+3        0.00000   0.00000   0.00000  -0.00236   0.00000
 142       16F-3        0.00118  -0.00159  -0.00106   0.00000  -0.00045
 143 4   Cl 1S         -0.01183  -0.01506  -0.01062   0.00000   0.00399
 144        2S          0.04584   0.05741   0.04031   0.00000  -0.01528
 145        3S         -0.09320  -0.12276  -0.08753   0.00000   0.03321
 146        4S         -0.01259  -0.01713  -0.01368   0.00000   0.00581
 147        5S         -0.07824  -0.11674  -0.08197   0.00000   0.03534
 148        6S         -0.00766  -0.00758  -0.02269   0.00000   0.01698
 149        7PX         0.00000   0.00000   0.00000  -0.14825   0.00000
 150        7PY         0.00340   0.00311   0.10595   0.00000   0.07664
 151        7PZ        -0.01444  -0.04400   0.10898   0.00000   0.15844
 152        8PX         0.00000   0.00000   0.00000   0.34927   0.00000
 153        8PY        -0.00454   0.00484  -0.24464   0.00000  -0.18310
 154        8PZ         0.03155   0.09662  -0.26024   0.00000  -0.37216
 155        9PX         0.00000   0.00000   0.00000   0.16310   0.00000
 156        9PY        -0.00385  -0.00158  -0.11554   0.00000  -0.08875
 157        9PZ         0.01626   0.04810  -0.12458   0.00000  -0.17710
 158       10PX         0.00000   0.00000   0.00000   0.19711   0.00000
 159       10PY         0.01487   0.03166  -0.12603   0.00000  -0.13011
 160       10PZ         0.00589   0.03924  -0.17696   0.00000  -0.22915
 161       11PX         0.00000   0.00000   0.00000   0.00112   0.00000
 162       11PY         0.00089   0.00449  -0.00038   0.00000  -0.00770
 163       11PZ         0.00008  -0.00265  -0.00778   0.00000  -0.01074
 164       12D 0        0.00304   0.00557  -0.00678   0.00000  -0.00018
 165       12D+1        0.00000   0.00000   0.00000   0.00544   0.00000
 166       12D-1       -0.00562  -0.01023  -0.00149   0.00000   0.00222
 167       12D+2       -0.00103  -0.00437  -0.00930   0.00000   0.00218
 168       12D-2        0.00000   0.00000   0.00000  -0.01050   0.00000
 169       13D 0        0.00201   0.00850  -0.00830   0.00000   0.00164
 170       13D+1        0.00000   0.00000   0.00000   0.00816   0.00000
 171       13D-1       -0.00537  -0.00699  -0.00101   0.00000   0.00234
 172       13D+2        0.00149  -0.00057  -0.01142   0.00000   0.00460
 173       13D-2        0.00000   0.00000   0.00000  -0.01629   0.00000
 174       14D 0        0.00219   0.00608  -0.00782   0.00000  -0.00196
 175       14D+1        0.00000   0.00000   0.00000   0.00174   0.00000
 176       14D-1        0.00036  -0.00184   0.00348   0.00000   0.00242
 177       14D+2        0.00306   0.00297  -0.00564   0.00000  -0.00113
 178       14D-2        0.00000   0.00000   0.00000  -0.00532   0.00000
 179       15F 0        0.00028   0.00021  -0.00188   0.00000  -0.00001
 180       15F+1        0.00000   0.00000   0.00000   0.00049   0.00000
 181       15F-1       -0.00145  -0.00353   0.00395   0.00000   0.00298
 182       15F+2       -0.00039  -0.00229  -0.00125   0.00000   0.00096
 183       15F-2        0.00000   0.00000   0.00000  -0.00432   0.00000
 184       15F+3        0.00000   0.00000   0.00000  -0.00429   0.00000
 185       15F-3       -0.00030   0.00051   0.00317   0.00000   0.00013
 186       16F 0       -0.00159   0.00130  -0.00042   0.00000   0.00041
 187       16F+1        0.00000   0.00000   0.00000  -0.00047   0.00000
 188       16F-1        0.00019  -0.00054   0.00210   0.00000   0.00151
 189       16F+2       -0.00022   0.00210  -0.00050   0.00000   0.00058
 190       16F-2        0.00000   0.00000   0.00000  -0.00225   0.00000
 191       16F+3        0.00000   0.00000   0.00000  -0.00251   0.00000
 192       16F-3       -0.00115  -0.00162   0.00114   0.00000  -0.00066
                          21        22        23        24        25
     Eigenvalues --     1.94726   1.94726   1.93695   1.93116   0.06665
   1 1   O  1S          0.02680   0.00000   0.00102   0.00000   0.00000
   2        2S         -0.07240   0.00000  -0.00279   0.00000   0.00000
   3        3S         -0.02043   0.00000  -0.00084   0.00000   0.00000
   4        4S         -0.02889   0.00000  -0.00115   0.00000   0.00000
   5        5S         -0.00094   0.00000   0.00051   0.00000   0.00000
   6        6PX         0.00000  -0.00089   0.00000   0.29513  -0.34428
   7        6PY         0.02835   0.00000  -0.14071   0.00000   0.00000
   8        6PZ         0.10058   0.00000   0.00433   0.00000   0.00000
   9        7PX         0.00000  -0.00110   0.00000   0.36986  -0.39620
  10        7PY         0.03496   0.00000  -0.17498   0.00000   0.00000
  11        7PZ         0.12283   0.00000   0.00523   0.00000   0.00000
  12        8PX         0.00000  -0.00061   0.00000   0.24749  -0.07270
  13        8PY         0.02440   0.00000  -0.12128   0.00000   0.00000
  14        8PZ         0.04009   0.00000   0.00256   0.00000   0.00000
  15        9PX         0.00000   0.00017   0.00000   0.02590  -0.00387
  16        9PY         0.00373   0.00000  -0.02174   0.00000   0.00000
  17        9PZ        -0.00341   0.00000   0.00015   0.00000   0.00000
  18       10D 0       -0.00469   0.00000  -0.00013   0.00000   0.00000
  19       10D+1        0.00000   0.00005   0.00000  -0.01036  -0.01309
  20       10D-1       -0.00055   0.00000   0.00021   0.00000   0.00000
  21       10D+2       -0.00002   0.00000  -0.00001   0.00000   0.00000
  22       10D-2        0.00000   0.00038   0.00000  -0.00009  -0.00009
  23       11D 0       -0.00913   0.00000  -0.00022   0.00000   0.00000
  24       11D+1        0.00000   0.00009   0.00000  -0.02823  -0.01096
  25       11D-1       -0.00109   0.00000  -0.00018   0.00000   0.00000
  26       11D+2       -0.00201   0.00000  -0.00009   0.00000   0.00000
  27       11D-2        0.00000   0.00173   0.00000  -0.00028  -0.00022
  28       12D 0        0.01184   0.00000   0.00043   0.00000   0.00000
  29       12D+1        0.00000   0.00006   0.00000  -0.01256   0.01610
  30       12D-1       -0.00030   0.00000  -0.00748   0.00000   0.00000
  31       12D+2       -0.00222   0.00000   0.00009   0.00000   0.00000
  32       12D-2        0.00000   0.00384   0.00000  -0.00011  -0.00007
  33       13F 0        0.00186   0.00000   0.00004   0.00000   0.00000
  34       13F+1        0.00000  -0.00002   0.00000   0.00541   0.00389
  35       13F-1        0.00029   0.00000   0.00021   0.00000   0.00000
  36       13F+2        0.00046   0.00000   0.00002   0.00000   0.00000
  37       13F-2        0.00000  -0.00034   0.00000   0.00009   0.00002
  38       13F+3        0.00000   0.00000   0.00000   0.00105  -0.00254
  39       13F-3        0.00011   0.00000  -0.00045   0.00000   0.00000
  40       14F 0        0.00192   0.00000   0.00004   0.00000   0.00000
  41       14F+1        0.00000   0.00002   0.00000   0.00347  -0.00535
  42       14F-1        0.00018   0.00000  -0.00071   0.00000   0.00000
  43       14F+2        0.00230   0.00000   0.00003   0.00000   0.00000
  44       14F-2        0.00000  -0.00120   0.00000   0.00008   0.00012
  45       14F+3        0.00000   0.00002   0.00000   0.00088  -0.00075
  46       14F-3        0.00007   0.00000  -0.00019   0.00000   0.00000
  47 2   C  1S         -0.07493   0.00000  -0.00190   0.00000   0.00000
  48        2S          0.21451   0.00000   0.00529   0.00000   0.00000
  49        3S          0.04619   0.00000   0.00093   0.00000   0.00000
  50        4S          0.16110   0.00000   0.00670   0.00000   0.00000
  51        5S          0.02054   0.00000   0.00128   0.00000   0.00000
  52        6PX         0.00000  -0.00208   0.00000   0.17266   0.30820
  53        6PY        -0.00136   0.00000   0.13961   0.00000   0.00000
  54        6PZ        -0.16999   0.00000  -0.00497   0.00000   0.00000
  55        7PX         0.00000  -0.00281   0.00000   0.21995   0.46723
  56        7PY        -0.00142   0.00000   0.19852   0.00000   0.00000
  57        7PZ        -0.21760   0.00000  -0.00690   0.00000   0.00000
  58        8PX         0.00000  -0.00023   0.00000   0.08357   0.15530
  59        8PY         0.00025   0.00000   0.02861   0.00000   0.00000
  60        8PZ        -0.03362   0.00000  -0.00278   0.00000   0.00000
  61        9PX         0.00000  -0.00019   0.00000  -0.00178   0.01045
  62        9PY        -0.00189   0.00000  -0.00026   0.00000   0.00000
  63        9PZ         0.00721   0.00000  -0.00010   0.00000   0.00000
  64       10D 0       -0.01274   0.00000  -0.00038   0.00000   0.00000
  65       10D+1        0.00000   0.00008   0.00000   0.02390  -0.00026
  66       10D-1        0.00180   0.00000  -0.02894   0.00000   0.00000
  67       10D+2       -0.00946   0.00000  -0.00012   0.00000   0.00000
  68       10D-2        0.00000   0.01043   0.00000   0.00022  -0.00024
  69       11D 0       -0.00919   0.00000  -0.00008   0.00000   0.00000
  70       11D+1        0.00000   0.00025   0.00000   0.03717   0.02331
  71       11D-1        0.00232   0.00000  -0.07215   0.00000   0.00000
  72       11D+2       -0.01820   0.00000  -0.00061   0.00000   0.00000
  73       11D-2        0.00000   0.03278   0.00000   0.00024  -0.00004
  74       12D 0        0.03029   0.00000   0.00092   0.00000   0.00000
  75       12D+1        0.00000  -0.00026   0.00000  -0.00617   0.01358
  76       12D-1        0.00319   0.00000  -0.02040   0.00000   0.00000
[...]
  73       11D-2        0.00000   0.00000  -0.00513   0.00000   0.00000
  74       12D 0        0.13706   1.24568   0.00000   0.25417  -0.40828
  75       12D+1        0.00000   0.00000   0.75352   0.00000   0.00000
  76       12D-1        7.05648  -0.21946   0.00000   2.28574   0.97797
  77       12D+2       -0.02383   1.43741   0.00000   0.16493  -0.20194
  78       12D-2        0.00000   0.00000   0.01907   0.00000   0.00000
  79       13F 0       -0.00265  -0.05432   0.00000   0.00540  -0.00716
  80       13F+1        0.00000   0.00000  -0.09366   0.00000   0.00000
  81       13F-1       -0.02159   0.00074   0.00000   0.07711  -0.01901
  82       13F+2       -0.00070  -0.03893   0.00000  -0.00158   0.00056
  83       13F-2        0.00000   0.00000   0.00019   0.00000   0.00000
  84       13F+3        0.00000   0.00000   0.03857   0.00000   0.00000
  85       13F-3       -0.00668   0.00005   0.00000  -0.01066   0.01838
  86       14F 0        0.01550   0.10719   0.00000  -0.00616   0.01066
  87       14F+1        0.00000   0.00000  -0.17850   0.00000   0.00000
  88       14F-1        0.44799   0.00401   0.00000   0.19169  -0.20609
  89       14F+2        0.02299   0.26049   0.00000   0.00976  -0.02108
  90       14F-2        0.00000   0.00000  -0.00222   0.00000   0.00000
  91       14F+3        0.00000   0.00000   0.01348   0.00000   0.00000
  92       14F-3        0.19605  -0.00188   0.00000   0.19127  -0.10183
  93 3   Cl 1S          0.02912  -0.01606   0.00000   0.01240   0.00775
  94        2S          0.46646  -0.24221   0.00000   0.16300   0.13490
  95        3S          1.17303  -0.63256   0.00000   0.47362   0.31605
  96        4S         -0.22899   0.10216   0.00000   0.00775  -0.11876
  97        5S         -7.03817   2.04251   0.00000  -3.69200  -0.87174
  98        6S         -3.06826   1.81262   0.00000 -12.57888   0.39616
  99        7PX         0.00000   0.00000  -0.01671   0.00000   0.00000
 100        7PY         0.00653   0.00378   0.00000   0.01280  -0.00015
 101        7PZ        -0.01194  -0.00764   0.00000  -0.00251   0.00712
 102        8PX         0.00000   0.00000  -0.21390   0.00000   0.00000
 103        8PY        -0.01780   0.06064   0.00000   0.21483   0.08020
 104        8PZ        -0.30449  -0.08829   0.00000  -0.02513   0.14705
 105        9PX         0.00000   0.00000   0.06479   0.00000   0.00000
 106        9PY        -0.01949  -0.03061   0.00000  -0.04856   0.00307
 107        9PZ         0.04710   0.01375   0.00000   0.01235  -0.02595
 108       10PX         0.00000   0.00000   0.94104   0.00000   0.00000
 109       10PY        -3.48093   0.59258   0.00000  -4.77657  -0.36882
 110       10PZ        -1.10097   2.04197   0.00000  -3.34444  -0.27622
 111       11PX         0.00000   0.00000  -2.26028   0.00000   0.00000
 112       11PY        -0.50213  -0.58938   0.00000  -2.23456  -3.19251
 113       11PZ         0.28135  -2.01833   0.00000  -1.66188   0.81151
 114       12D 0        0.00698  -0.04262   0.00000   0.02027   0.00848
 115       12D+1        0.00000   0.00000  -0.02660   0.00000   0.00000
 116       12D-1        0.05008  -0.08497   0.00000  -0.01901  -0.01777
 117       12D+2       -0.01047   0.06922   0.00000   0.03512   0.05879
 118       12D-2        0.00000   0.00000  -0.00970   0.00000   0.00000
 119       13D 0       -0.11989   0.17316   0.00000  -0.12457  -0.01269
 120       13D+1        0.00000   0.00000   0.08267   0.00000   0.00000
 121       13D-1       -0.39327   0.38304   0.00000  -0.04911   0.14938
 122       13D+2        0.13236  -0.28899   0.00000  -0.07996  -0.26747
 123       13D-2        0.00000   0.00000   0.03494   0.00000   0.00000
 124       14D 0        0.60335   0.25647   0.00000  -0.04671   0.23962
 125       14D+1        0.00000   0.00000  -0.07519   0.00000   0.00000
 126       14D-1       -0.17306   0.15773   0.00000  -1.56347  -0.16798
 127       14D+2        0.27226   0.34571   0.00000   1.08845   0.65288
 128       14D-2        0.00000   0.00000   0.19704   0.00000   0.00000
 129       15F 0       -0.03246  -0.00146   0.00000  -0.00835   0.01295
 130       15F+1        0.00000   0.00000  -0.00514   0.00000   0.00000
 131       15F-1       -0.00725  -0.04237   0.00000   0.04805  -0.00676
 132       15F+2        0.00028   0.02736   0.00000  -0.01256   0.00342
 133       15F-2        0.00000   0.00000  -0.01639   0.00000   0.00000
 134       15F+3        0.00000   0.00000   0.04230   0.00000   0.00000
 135       15F-3        0.03219  -0.00341   0.00000   0.00668   0.01111
 136       16F 0        0.13590   0.00254   0.00000   0.03580  -0.02407
 137       16F+1        0.00000   0.00000  -0.00083   0.00000   0.00000
 138       16F-1       -0.04879   0.18346   0.00000  -0.19224   0.05807
 139       16F+2        0.09504  -0.13411   0.00000   0.11202  -0.03044
 140       16F-2        0.00000   0.00000   0.03640   0.00000   0.00000
 141       16F+3        0.00000   0.00000  -0.10276   0.00000   0.00000
 142       16F-3       -0.03262  -0.03589   0.00000   0.02769  -0.00898
 143 4   Cl 1S         -0.02869  -0.01367   0.00000  -0.01141  -0.01011
 144        2S         -0.45941  -0.20548   0.00000  -0.14534  -0.17485
 145        3S         -1.15485  -0.53752   0.00000  -0.43320  -0.41175
 146        4S          0.22965   0.08779   0.00000  -0.02354   0.14760
 147        5S          6.60065   1.48844   0.00000   3.56181   1.07193
 148        6S          2.86166   1.25259   0.00000  13.09068  -1.73740
 149        7PX         0.00000   0.00000  -0.01674   0.00000   0.00000
 150        7PY         0.00700  -0.00302   0.00000   0.01331  -0.00150
 151        7PZ         0.01017  -0.00787   0.00000   0.00023  -0.00275
 152        8PX         0.00000   0.00000  -0.21273   0.00000   0.00000
 153        8PY         0.01090  -0.04577   0.00000   0.21796   0.06097
 154        8PZ         0.26023  -0.09577   0.00000  -0.00970  -0.07766
 155        9PX         0.00000   0.00000   0.06495   0.00000   0.00000
 156        9PY        -0.01924   0.02699   0.00000  -0.04987   0.00849
 157        9PZ        -0.04267   0.01543   0.00000  -0.00418   0.00917
 158       10PX         0.00000   0.00000   0.91219   0.00000   0.00000
 159       10PY        -3.25452  -0.27246   0.00000  -4.66643  -0.55565
 160       10PZ         1.14519   1.80717   0.00000   3.52346  -0.07962
 161       11PX         0.00000   0.00000  -2.23821   0.00000   0.00000
 162       11PY        -0.49627   0.73785   0.00000  -2.30487  -2.87295
 163       11PZ        -0.31564  -2.02220   0.00000   1.49851  -0.53587
 164       12D 0       -0.00835  -0.04127   0.00000  -0.02208  -0.00361
 165       12D+1        0.00000   0.00000  -0.02669   0.00000   0.00000
 166       12D-1        0.05223   0.08252   0.00000  -0.01774  -0.01275
 167       12D+2        0.01105   0.07050   0.00000  -0.03240  -0.05909
 168       12D-2        0.00000   0.00000   0.00995   0.00000   0.00000
 169       13D 0        0.12315   0.16849   0.00000   0.12818  -0.00313
 170       13D+1        0.00000   0.00000   0.08343   0.00000   0.00000
 171       13D-1       -0.37930  -0.35938   0.00000  -0.05630   0.12389
 172       13D+2       -0.12085  -0.28073   0.00000   0.06917   0.26065
 173       13D-2        0.00000   0.00000  -0.03630   0.00000   0.00000
 174       14D 0       -0.54405   0.26643   0.00000   0.08268  -0.28633
 175       14D+1        0.00000   0.00000  -0.08286   0.00000   0.00000
 176       14D-1       -0.21103  -0.09672   0.00000  -1.55958  -0.13572
 177       14D+2       -0.24491   0.39638   0.00000  -1.01461  -0.77008
 178       14D-2        0.00000   0.00000  -0.18573   0.00000   0.00000
 179       15F 0        0.03447  -0.00064   0.00000   0.00830  -0.01330
 180       15F+1        0.00000   0.00000  -0.00469   0.00000   0.00000
 181       15F-1       -0.00107   0.04205   0.00000   0.04531  -0.00075
 182       15F+2        0.00325   0.03033   0.00000   0.01238  -0.00235
 183       15F-2        0.00000   0.00000   0.01635   0.00000   0.00000
 184       15F+3        0.00000   0.00000   0.04362   0.00000   0.00000
 185       15F-3        0.03127  -0.00015   0.00000   0.00847   0.01031
 186       16F 0       -0.13695   0.00506   0.00000  -0.03886   0.02537
 187       16F+1        0.00000   0.00000  -0.00179   0.00000   0.00000
 188       16F-1       -0.06905  -0.17877   0.00000  -0.18816   0.04425
 189       16F+2       -0.10520  -0.13066   0.00000  -0.11191   0.01975
 190       16F-2        0.00000   0.00000  -0.03602   0.00000   0.00000
 191       16F+3        0.00000   0.00000  -0.10454   0.00000   0.00000
 192       16F-3       -0.03054   0.03785   0.00000   0.02046   0.00498
                         191       192
     Eigenvalues --     0.00000   0.00000
   1 1   O  1S          0.07028   0.07102
   2        2S          0.37586   0.36337
   3        3S          0.01076  -0.01502
   4        4S         -4.58005  -2.96387
   5        5S         -9.33183  -8.51699
   6        6PX         0.00000   0.00000
   7        6PY         0.00025   0.00009
   8        6PZ        -0.00964   0.00441
   9        7PX         0.00000   0.00000
  10        7PY         0.00890  -0.00058
  11        7PZ         0.15134  -0.01111
  12        8PX         0.00000   0.00000
  13        8PY         0.11969   0.02842
  14        8PZ         2.71285   2.14732
  15        9PX         0.00000   0.00000
  16        9PY        -0.57060   0.02438
  17        9PZ        -1.38227  -0.04379
  18       10D 0        0.03812   0.04111
  19       10D+1        0.00000   0.00000
  20       10D-1        0.00713   0.00037
  21       10D+2       -0.02790  -0.01394
  22       10D-2        0.00000   0.00000
  23       11D 0       -0.31383  -0.21733
  24       11D+1        0.00000   0.00000
  25       11D-1       -0.03963  -0.00211
  26       11D+2        0.07962   0.04300
  27       11D-2        0.00000   0.00000
  28       12D 0       -0.40254  -0.30931
  29       12D+1        0.00000   0.00000
  30       12D-1       -0.01093  -0.01315
  31       12D+2       -0.44267  -0.13128
  32       12D-2        0.00000   0.00000
  33       13F 0        0.00914  -0.00969
  34       13F+1        0.00000   0.00000
  35       13F-1       -0.00259  -0.00017
  36       13F+2       -0.01480  -0.00610
  37       13F-2        0.00000   0.00000
  38       13F+3        0.00000   0.00000
  39       13F-3        0.00158   0.00015
  40       14F 0        0.12748   0.11638
  41       14F+1        0.00000   0.00000
  42       14F-1        0.02232   0.00240
  43       14F+2        0.06766   0.02577
  44       14F-2        0.00000   0.00000
  45       14F+3        0.00000   0.00000
  46       14F-3       -0.00182  -0.00035
  47 2   C  1S          0.20393   0.02753
  48        2S          1.12850   0.23999
  49        3S         -0.04682   0.10574
  50        4S          6.47698  12.28248
  51        5S         -2.28989  19.32951
  52        6PX         0.00000   0.00000
  53        6PY         0.00061  -0.00044
  54        6PZ         0.01939   0.00932
  55        7PX         0.00000   0.00000
  56        7PY        -0.01050   0.00671
  57        7PZ         1.04257   0.59746
  58        8PX         0.00000   0.00000
  59        8PY         0.58033  -0.02313
  60        8PZ         2.78099  -0.74262
  61        9PX         0.00000   0.00000
  62        9PY         1.45558   0.00565
  63        9PZ         7.17269  -0.54502
  64       10D 0        0.06189   0.04600
  65       10D+1        0.00000   0.00000
  66       10D-1        0.00115   0.00070
  67       10D+2        0.01279  -0.02112
  68       10D-2        0.00000   0.00000
  69       11D 0        0.50876   0.20933
  70       11D+1        0.00000   0.00000
  71       11D-1       -0.08462  -0.00169
  72       11D+2       -0.05823  -0.02760
  73       11D-2        0.00000   0.00000
  74       12D 0        3.19822   1.63249
  75       12D+1        0.00000   0.00000
  76       12D-1        0.08828   0.01865
  77       12D+2        1.50151  -0.74714
  78       12D-2        0.00000   0.00000
  79       13F 0        0.06084  -0.01194
  80       13F+1        0.00000   0.00000
  81       13F-1       -0.00540   0.00034
  82       13F+2       -0.01150   0.00015
  83       13F-2        0.00000   0.00000
  84       13F+3        0.00000   0.00000
  85       13F-3        0.00267  -0.00110
  86       14F 0       -0.04703  -0.04255
  87       14F+1        0.00000   0.00000
  88       14F-1       -0.04666  -0.00215
  89       14F+2        0.23707   0.02143
  90       14F-2        0.00000   0.00000
  91       14F+3        0.00000   0.00000
  92       14F-3       -0.02016   0.00171
  93 3   Cl 1S          0.00833   0.00064
  94        2S          0.14594  -0.01110
  95        3S          0.34040   0.01252
  96        4S         -0.11957   0.06476
  97        5S         -0.85185  -0.61203
  98        6S          5.62083 -10.27784
  99        7PX         0.00000   0.00000
 100        7PY        -0.00664   0.01045
 101        7PZ        -0.01644   0.00569
 102        8PX         0.00000   0.00000
 103        8PY        -0.09844   0.18058
 104        8PZ        -0.25687   0.10240
 105        9PX         0.00000   0.00000
 106        9PY         0.02422  -0.03724
 107        9PZ         0.06096  -0.02062
 108       10PX         0.00000   0.00000
 109       10PY        -0.61957  -2.91631
 110       10PZ         1.70938  -1.36395
 111       11PX         0.00000   0.00000
 112       11PY         0.54780  -1.62981
 113       11PZ        -0.85663  -1.34056
 114       12D 0       -0.01785   0.00183
 115       12D+1        0.00000   0.00000
 116       12D-1        0.00672  -0.00162
 117       12D+2        0.01001  -0.02318
 118       12D-2        0.00000   0.00000
 119       13D 0        0.08037   0.00951
 120       13D+1        0.00000   0.00000
 121       13D-1       -0.02969  -0.00491
 122       13D+2       -0.00910   0.10149
 123       13D-2        0.00000   0.00000
 124       14D 0        0.33738   0.13151
 125       14D+1        0.00000   0.00000
 126       14D-1        0.22216  -0.76644
 127       14D+2        0.50563   0.64105
 128       14D-2        0.00000   0.00000
 129       15F 0        0.00473  -0.01648
 130       15F+1        0.00000   0.00000
 131       15F-1        0.01081   0.00824
 132       15F+2        0.00315  -0.04149
 133       15F-2        0.00000   0.00000
 134       15F+3        0.00000   0.00000
 135       15F-3        0.00021  -0.03427
 136       16F 0       -0.00686   0.05369
 137       16F+1        0.00000   0.00000
 138       16F-1        0.00880  -0.02075
 139       16F+2        0.00684   0.13764
 140       16F-2        0.00000   0.00000
 141       16F+3        0.00000   0.00000
 142       16F-3        0.04458   0.11558
 143 4   Cl 1S          0.00687   0.00024
 144        2S          0.11542  -0.01771
 145        3S          0.27793  -0.00369
 146        4S         -0.07899   0.06941
 147        5S         -0.82100  -0.49725
 148        6S          3.67070 -10.13688
 149        7PX         0.00000   0.00000
 150        7PY         0.00372  -0.01041
 151        7PZ        -0.01750   0.00575
 152        8PX         0.00000   0.00000
 153        8PY         0.07061  -0.18106
 154        8PZ        -0.27576   0.10279
 155        9PX         0.00000   0.00000
 156        9PY        -0.01306   0.03678
 157        9PZ         0.06552  -0.02070
 158       10PX         0.00000   0.00000
 159       10PY         0.97667   2.85754
 160       10PZ         1.30076  -1.32676
 161       11PX         0.00000   0.00000
 162       11PY        -1.17540   1.63382
 163       11PZ        -1.27807  -1.32679
 164       12D 0       -0.01810   0.00181
 165       12D+1        0.00000   0.00000
 166       12D-1       -0.00813   0.00196
 167       12D+2       -0.00323  -0.02304
 168       12D-2        0.00000   0.00000
 169       13D 0        0.06808   0.00931
 170       13D+1        0.00000   0.00000
 171       13D-1        0.06549   0.00578
 172       13D+2        0.05042   0.10120
 173       13D-2        0.00000   0.00000
 174       14D 0        0.22421   0.13573
 175       14D+1        0.00000   0.00000
 176       14D-1       -0.07001   0.75810
 177       14D+2        0.42179   0.63849
 178       14D-2        0.00000   0.00000
 179       15F 0        0.00020  -0.01653
 180       15F+1        0.00000   0.00000
 181       15F-1       -0.01728  -0.00778
 182       15F+2       -0.00072  -0.04116
 183       15F-2        0.00000   0.00000
 184       15F+3        0.00000   0.00000
 185       15F-3        0.00424   0.03467
 186       16F 0        0.00236   0.05552
 187       16F+1        0.00000   0.00000
 188       16F-1        0.03037   0.02065
 189       16F+2        0.02850   0.13870
 190       16F-2        0.00000   0.00000
 191       16F+3        0.00000   0.00000
 192       16F-3       -0.05021  -0.11713
          Condensed to atoms (all electrons):
              1          2          3          4
     1  O    8.034164   0.435583  -0.075271  -0.073725
     2  C    0.435583   4.966916   0.131565   0.141024
     3  Cl  -0.075271   0.131565  17.037212  -0.100433
     4  Cl  -0.073725   0.141024  -0.100433  17.044224
 Mulliken atomic charges:
              1
     1  O   -0.320750
     2  C    0.324913
     3  Cl   0.006927
     4  Cl  -0.011090
 Sum of Mulliken atomic charges =   0.00000
 Mulliken charges with hydrogens summed into heavy atoms:
              1
     1  O   -0.320750
     2  C    0.324913
     3  Cl   0.006927
     4  Cl  -0.011090
 Sum of Mulliken charges with hydrogens summed into heavy atoms =   0.00000
 Electronic spatial extent (au):  <R**2>=            613.6885
 Charge=              0.0000 electrons
 Dipole moment (field-independent basis, Debye):
    X=              0.0000    Y=             -0.1036    Z=             -1.2392  Tot=              1.2435
 Quadrupole moment (field-independent basis, Debye-Ang):
   XX=            -35.0850   YY=            -34.3836   ZZ=            -36.2851
   XY=              0.0000   XZ=              0.0000   YZ=              0.1610
 Traceless Quadrupole moment (field-independent basis, Debye-Ang):
   XX=              0.1663   YY=              0.8676   ZZ=             -1.0339
   XY=              0.0000   XZ=              0.0000   YZ=              0.1610
 Octapole moment (field-independent basis, Debye-Ang**2):
  XXX=              0.0000  YYY=             -0.1613  ZZZ=            106.2008  XYY=              0.0000
  XXY=             -0.0400  XXZ=             36.0665  XZZ=              0.0000  YZZ=             -0.2778
  YYZ=             29.7052  XYZ=              0.0000
 Hexadecapole moment (field-independent basis, Debye-Ang**3):
 XXXX=            -37.1318 YYYY=           -329.3005 ZZZZ=           -383.1007 XXXY=              0.0000
 XXXZ=              0.0000 YYYX=              0.0000 YYYZ=              0.4663 ZZZX=              0.0000
 ZZZY=              0.7743 XXYY=            -65.2567 XXZZ=            -71.0859 YYZZ=           -106.8905
 XXYZ=              0.1122 YYXZ=              0.0000 ZZXY=              0.0000
 N-N= 1.917661946761D+02 E-N=-2.837761685217D+03  KE= 1.032422214700D+03
 1\1\GINC-TRAPISTA\SP\RQCISD-FC\Aug-CC-pVTZ\C1Cl2O1\BRUNS\27-Nov-2021\0
 \\# qcisd/aug-cc-pvtz nosymm density=current output=wfn\\cl2co-wavefun
 ction\\0,1\O,0,0.,0.,0.683397\C,0,0.,-0.01,-0.494687\Cl,0,0.,-1.44687,
 -1.469805\Cl,0,0.,1.44687,-1.469805\\Version=EM64L-G09RevB.01\HF=-1031
 .802679\MP2=-1032.5821026\MP3=-1032.6011512\MP4D=-1032.620819\MP4DQ=-1
 032.5982969\MP4SDQ=-1032.6072805\QCISD=-1032.6055491\RMSD=6.348e-09\Di
 pole=0.,-0.0407754,-0.4875353\Quadrupole=0.1236114,0.6450636,-0.768675
 ,0.,0.,0.1197207\PG=CS [SG(C1Cl2O1)]\\@

 Writing a WFN file to GAUSSIAN.wfn.


 IT IS BY LOGIC THAT WE PROVE, BUT BY INTUITION THAT WE DISCOVER.
     -- J.H.POINCARE (1854-1912)
 Job cpu time:  0 days  2 hours  2 minutes 25.5 seconds.
 File lengths (MBytes):  RWF=  18183 Int=      0 D2E=      0 Chk=      3 Scr=      1
 Normal termination of Gaussian 09 at Sat Nov 27 13:50:45 2021.
