 cl2co-wavefunction
GAUSSIAN            192 MOL ORBITALS    372 PRIMITIVES        4 NUCLEI
  O    1    (CENTRE  1)   0.00000000  0.00000000  1.29143317  CHARGE =  8.0
  C    2    (CENTRE  2)  -0.01889726  0.00000000 -0.93482295  CHARGE =  6.0
  Cl   3    (CENTRE  3)   0.00000000 -2.73418805 -2.77752892  CHARGE = 17.0
  Cl   4    (CENTRE  4)   0.00000000  2.73418805 -2.77752892  CHARGE = 17.0
CENTRE ASSIGNMENTS    1  1  1  1  1  1  1  1  1  1  1  1  1  1  1  1  1  1  1  1
CENTRE ASSIGNMENTS    1  1  1  1  1  1  1  1  1  1  1  1  1  1  1  1  1  1  1  1
CENTRE ASSIGNMENTS    1  1  1  1  1  1  1  1  1  1  1  1  1  1  1  1  1  1  1  1
CENTRE ASSIGNMENTS    1  1  1  1  1  1  1  1  1  1  1  1  2  2  2  2  2  2  2  2
CENTRE ASSIGNMENTS    2  2  2  2  2  2  2  2  2  2  2  2  2  2  2  2  2  2  2  2
CENTRE ASSIGNMENTS    2  2  2  2  2  2  2  2  2  2  2  2  2  2  2  2  2  2  2  2
CENTRE ASSIGNMENTS    2  2  2  2  2  2  2  2  2  2  2  2  2  2  2  2  2  2  2  2
CENTRE ASSIGNMENTS    2  2  2  2  3  3  3  3  3  3  3  3  3  3  3  3  3  3  3  3
CENTRE ASSIGNMENTS    3  3  3  3  3  3  3  3  3  3  3  3  3  3  3  3  3  3  3  3
CENTRE ASSIGNMENTS    3  3  3  3  3  3  3  3  3  3  3  3  3  3  3  3  3  3  3  3
CENTRE ASSIGNMENTS    3  3  3  3  3  3  3  3  3  3  3  3  3  3  3  3  3  3  3  3
CENTRE ASSIGNMENTS    3  3  3  3  3  3  3  3  3  3  3  3  3  3  3  3  3  3  3  3
CENTRE ASSIGNMENTS    3  3  3  3  3  3  3  3  3  3  3  3  3  3  3  3  3  3  4  4
CENTRE ASSIGNMENTS    4  4  4  4  4  4  4  4  4  4  4  4  4  4  4  4  4  4  4  4
CENTRE ASSIGNMENTS    4  4  4  4  4  4  4  4  4  4  4  4  4  4  4  4  4  4  4  4
CENTRE ASSIGNMENTS    4  4  4  4  4  4  4  4  4  4  4  4  4  4  4  4  4  4  4  4
CENTRE ASSIGNMENTS    4  4  4  4  4  4  4  4  4  4  4  4  4  4  4  4  4  4  4  4
CENTRE ASSIGNMENTS    4  4  4  4  4  4  4  4  4  4  4  4  4  4  4  4  4  4  4  4
CENTRE ASSIGNMENTS    4  4  4  4  4  4  4  4  4  4  4  4
TYPE ASSIGNMENTS      1  1  1  1  1  1  1  1  1  1  1  1  1  1  1  1  2  2  2  3
TYPE ASSIGNMENTS      3  3  4  4  4  2  3  4  2  3  4  2  3  4  5  6  7  8  9 10
TYPE ASSIGNMENTS      5  6  7  8  9 10  5  6  7  8  9 10 11 12 13 17 14 15 18 19
TYPE ASSIGNMENTS     16 20 11 12 13 17 14 15 18 19 16 20  1  1  1  1  1  1  1  1
TYPE ASSIGNMENTS      1  1  1  1  1  1  1  1  2  2  2  3  3  3  4  4  4  2  3  4
TYPE ASSIGNMENTS      2  3  4  2  3  4  5  6  7  8  9 10  5  6  7  8  9 10  5  6
TYPE ASSIGNMENTS      7  8  9 10 11 12 13 17 14 15 18 19 16 20 11 12 13 17 14 15
TYPE ASSIGNMENTS     18 19 16 20  1  1  1  1  1  1  1  1  1  1  1  1  1  1  1  1
TYPE ASSIGNMENTS      1  1  1  1  1  1  1  1  1  1  1  1  1  1  1  2  2  2  2  2
TYPE ASSIGNMENTS      2  3  3  3  3  3  3  4  4  4  4  4  4  2  2  2  2  2  2  3
TYPE ASSIGNMENTS      3  3  3  3  3  4  4  4  4  4  4  2  3  4  2  3  4  2  3  4
TYPE ASSIGNMENTS      5  6  7  8  9 10  5  6  7  8  9 10  5  6  7  8  9 10 11 12
TYPE ASSIGNMENTS     13 17 14 15 18 19 16 20 11 12 13 17 14 15 18 19 16 20  1  1
TYPE ASSIGNMENTS      1  1  1  1  1  1  1  1  1  1  1  1  1  1  1  1  1  1  1  1
TYPE ASSIGNMENTS      1  1  1  1  1  1  1  1  1  2  2  2  2  2  2  3  3  3  3  3
TYPE ASSIGNMENTS      3  4  4  4  4  4  4  2  2  2  2  2  2  3  3  3  3  3  3  4
TYPE ASSIGNMENTS      4  4  4  4  4  2  3  4  2  3  4  2  3  4  5  6  7  8  9 10
TYPE ASSIGNMENTS      5  6  7  8  9 10  5  6  7  8  9 10 11 12 13 17 14 15 18 19
TYPE ASSIGNMENTS     16 20 11 12 13 17 14 15 18 19 16 20
EXPONENTS  0.1533000D+05 0.2299000D+04 0.5224000D+03 0.1473000D+03 0.4755000D+02
EXPONENTS  0.1676000D+02 0.6207000D+01 0.5224000D+03 0.1473000D+03 0.4755000D+02
EXPONENTS  0.1676000D+02 0.6207000D+01 0.6882000D+00 0.1752000D+01 0.2384000D+00
EXPONENTS  0.7376000D-01 0.3446000D+02 0.7749000D+01 0.2280000D+01 0.3446000D+02
EXPONENTS  0.7749000D+01 0.2280000D+01 0.3446000D+02 0.7749000D+01 0.2280000D+01
EXPONENTS  0.7156000D+00 0.7156000D+00 0.7156000D+00 0.2140000D+00 0.2140000D+00
EXPONENTS  0.2140000D+00 0.5974000D-01 0.5974000D-01 0.5974000D-01 0.2314000D+01
EXPONENTS  0.2314000D+01 0.2314000D+01 0.2314000D+01 0.2314000D+01 0.2314000D+01
EXPONENTS  0.6450000D+00 0.6450000D+00 0.6450000D+00 0.6450000D+00 0.6450000D+00
EXPONENTS  0.6450000D+00 0.2140000D+00 0.2140000D+00 0.2140000D+00 0.2140000D+00
EXPONENTS  0.2140000D+00 0.2140000D+00 0.1428000D+01 0.1428000D+01 0.1428000D+01
EXPONENTS  0.1428000D+01 0.1428000D+01 0.1428000D+01 0.1428000D+01 0.1428000D+01
EXPONENTS  0.1428000D+01 0.1428000D+01 0.5000000D+00 0.5000000D+00 0.5000000D+00
EXPONENTS  0.5000000D+00 0.5000000D+00 0.5000000D+00 0.5000000D+00 0.5000000D+00
EXPONENTS  0.5000000D+00 0.5000000D+00 0.8236000D+04 0.1235000D+04 0.2808000D+03
EXPONENTS  0.7927000D+02 0.2559000D+02 0.8997000D+01 0.3319000D+01 0.2808000D+03
EXPONENTS  0.7927000D+02 0.2559000D+02 0.8997000D+01 0.3319000D+01 0.3643000D+00
EXPONENTS  0.9059000D+00 0.1285000D+00 0.4402000D-01 0.1871000D+02 0.4133000D+01
EXPONENTS  0.1200000D+01 0.1871000D+02 0.4133000D+01 0.1200000D+01 0.1871000D+02
EXPONENTS  0.4133000D+01 0.1200000D+01 0.3827000D+00 0.3827000D+00 0.3827000D+00
EXPONENTS  0.1209000D+00 0.1209000D+00 0.1209000D+00 0.3569000D-01 0.3569000D-01
EXPONENTS  0.3569000D-01 0.1097000D+01 0.1097000D+01 0.1097000D+01 0.1097000D+01
EXPONENTS  0.1097000D+01 0.1097000D+01 0.3180000D+00 0.3180000D+00 0.3180000D+00
EXPONENTS  0.3180000D+00 0.3180000D+00 0.3180000D+00 0.1000000D+00 0.1000000D+00
EXPONENTS  0.1000000D+00 0.1000000D+00 0.1000000D+00 0.1000000D+00 0.7610000D+00
EXPONENTS  0.7610000D+00 0.7610000D+00 0.7610000D+00 0.7610000D+00 0.7610000D+00
EXPONENTS  0.7610000D+00 0.7610000D+00 0.7610000D+00 0.7610000D+00 0.2680000D+00
EXPONENTS  0.2680000D+00 0.2680000D+00 0.2680000D+00 0.2680000D+00 0.2680000D+00
EXPONENTS  0.2680000D+00 0.2680000D+00 0.2680000D+00 0.2680000D+00 0.4561000D+06
EXPONENTS  0.6833000D+05 0.1555000D+05 0.4405000D+04 0.1439000D+04 0.5204000D+03
EXPONENTS  0.2031000D+03 0.8396000D+02 0.3620000D+02 0.1583000D+02 0.6334000D+01
EXPONENTS  0.4405000D+04 0.1439000D+04 0.5204000D+03 0.2031000D+03 0.8396000D+02
EXPONENTS  0.3620000D+02 0.1583000D+02 0.6334000D+01 0.2694000D+01 0.1439000D+04
EXPONENTS  0.2031000D+03 0.8396000D+02 0.3620000D+02 0.1583000D+02 0.6334000D+01
EXPONENTS  0.2694000D+01 0.4313000D+00 0.9768000D+00 0.1625000D+00 0.5910000D-01
EXPONENTS  0.6633000D+03 0.1568000D+03 0.4998000D+02 0.1842000D+02 0.7240000D+01
EXPONENTS  0.2922000D+01 0.6633000D+03 0.1568000D+03 0.4998000D+02 0.1842000D+02
EXPONENTS  0.7240000D+01 0.2922000D+01 0.6633000D+03 0.1568000D+03 0.4998000D+02
EXPONENTS  0.1842000D+02 0.7240000D+01 0.2922000D+01 0.1568000D+03 0.4998000D+02
EXPONENTS  0.1842000D+02 0.7240000D+01 0.2922000D+01 0.3818000D+00 0.1568000D+03
EXPONENTS  0.4998000D+02 0.1842000D+02 0.7240000D+01 0.2922000D+01 0.3818000D+00
EXPONENTS  0.1568000D+03 0.4998000D+02 0.1842000D+02 0.7240000D+01 0.2922000D+01
EXPONENTS  0.3818000D+00 0.1022000D+01 0.1022000D+01 0.1022000D+01 0.1301000D+00
EXPONENTS  0.1301000D+00 0.1301000D+00 0.4190000D-01 0.4190000D-01 0.4190000D-01
EXPONENTS  0.1046000D+01 0.1046000D+01 0.1046000D+01 0.1046000D+01 0.1046000D+01
EXPONENTS  0.1046000D+01 0.3440000D+00 0.3440000D+00 0.3440000D+00 0.3440000D+00
EXPONENTS  0.3440000D+00 0.3440000D+00 0.1350000D+00 0.1350000D+00 0.1350000D+00
EXPONENTS  0.1350000D+00 0.1350000D+00 0.1350000D+00 0.7060000D+00 0.7060000D+00
EXPONENTS  0.7060000D+00 0.7060000D+00 0.7060000D+00 0.7060000D+00 0.7060000D+00
EXPONENTS  0.7060000D+00 0.7060000D+00 0.7060000D+00 0.3120000D+00 0.3120000D+00
EXPONENTS  0.3120000D+00 0.3120000D+00 0.3120000D+00 0.3120000D+00 0.3120000D+00
EXPONENTS  0.3120000D+00 0.3120000D+00 0.3120000D+00 0.4561000D+06 0.6833000D+05
EXPONENTS  0.1555000D+05 0.4405000D+04 0.1439000D+04 0.5204000D+03 0.2031000D+03
EXPONENTS  0.8396000D+02 0.3620000D+02 0.1583000D+02 0.6334000D+01 0.4405000D+04
EXPONENTS  0.1439000D+04 0.5204000D+03 0.2031000D+03 0.8396000D+02 0.3620000D+02
EXPONENTS  0.1583000D+02 0.6334000D+01 0.2694000D+01 0.1439000D+04 0.2031000D+03
EXPONENTS  0.8396000D+02 0.3620000D+02 0.1583000D+02 0.6334000D+01 0.2694000D+01
EXPONENTS  0.4313000D+00 0.9768000D+00 0.1625000D+00 0.5910000D-01 0.6633000D+03
EXPONENTS  0.1568000D+03 0.4998000D+02 0.1842000D+02 0.7240000D+01 0.2922000D+01
EXPONENTS  0.6633000D+03 0.1568000D+03 0.4998000D+02 0.1842000D+02 0.7240000D+01
EXPONENTS  0.2922000D+01 0.6633000D+03 0.1568000D+03 0.4998000D+02 0.1842000D+02
EXPONENTS  0.7240000D+01 0.2922000D+01 0.1568000D+03 0.4998000D+02 0.1842000D+02
EXPONENTS  0.7240000D+01 0.2922000D+01 0.3818000D+00 0.1568000D+03 0.4998000D+02
EXPONENTS  0.1842000D+02 0.7240000D+01 0.2922000D+01 0.3818000D+00 0.1568000D+03
EXPONENTS  0.4998000D+02 0.1842000D+02 0.7240000D+01 0.2922000D+01 0.3818000D+00
EXPONENTS  0.1022000D+01 0.1022000D+01 0.1022000D+01 0.1301000D+00 0.1301000D+00
EXPONENTS  0.1301000D+00 0.4190000D-01 0.4190000D-01 0.4190000D-01 0.1046000D+01
EXPONENTS  0.1046000D+01 0.1046000D+01 0.1046000D+01 0.1046000D+01 0.1046000D+01
EXPONENTS  0.3440000D+00 0.3440000D+00 0.3440000D+00 0.3440000D+00 0.3440000D+00
EXPONENTS  0.3440000D+00 0.1350000D+00 0.1350000D+00 0.1350000D+00 0.1350000D+00
EXPONENTS  0.1350000D+00 0.1350000D+00 0.7060000D+00 0.7060000D+00 0.7060000D+00
EXPONENTS  0.7060000D+00 0.7060000D+00 0.7060000D+00 0.7060000D+00 0.7060000D+00
EXPONENTS  0.7060000D+00 0.7060000D+00 0.3120000D+00 0.3120000D+00 0.3120000D+00
EXPONENTS  0.3120000D+00 0.3120000D+00 0.3120000D+00 0.3120000D+00 0.3120000D+00
EXPONENTS  0.3120000D+00 0.3120000D+00
MO    1     MO 0.0        OCC NO =    2.0000387  ORB. ENERGY =    0.000000
  0.77502023D-11  0.14445103D-10  0.24493702D-10  0.37068613D-10  0.46240172D-10
  0.39680947D-10  0.15195695D-10  0.45631347D-15  0.48959440D-14  0.18047372D-13
  0.52769456D-13  0.63589760D-13 -0.76600605D-13  0.62983430D-12 -0.35884893D-12
 -0.63811112D-12  0.47220973D-12  0.45788460D-12  0.30888625D-12 -0.87676262D-03
 -0.85016481D-03 -0.57351616D-03 -0.37170048D-11 -0.36042443D-11 -0.24314019D-11
  0.14174880D-12 -0.94141648D-03 -0.11530996D-11  0.54837483D-13 -0.75965079D-03
 -0.11181142D-11  0.13870042D-14 -0.19851799D-04 -0.22109316D-13 -0.31916799D-12
  0.45150756D-12 -0.13233957D-12 -0.28109924D-04  0.55078121D-13 -0.20024505D-03
  0.18449989D-12 -0.50974295D-12  0.32524306D-12  0.15399272D-04 -0.24479509D-13
 -0.70857797D-04 -0.12911018D-12 -0.41520206D-13  0.17063039D-12  0.57828003D-05
 -0.47088535D-14  0.11207756D-03 -0.84498118D-14 -0.14733176D-03 -0.92692899D-13
  0.47150959D-13  0.22255404D-03  0.94446499D-13 -0.21801523D-13  0.21944123D-03
  0.18363220D-12  0.29785325D-04  0.38882327D-14 -0.10228960D-04 -0.58174487D-13
 -0.16486630D-13 -0.20051736D-03 -0.77259859D-13  0.48219318D-14  0.23120424D-03
  0.25178332D-12 -0.11019100D-04  0.16456113D-10  0.30677510D-10  0.51849171D-10
  0.77938975D-10  0.95734071D-10  0.80796179D-10  0.30381473D-10  0.84832743D-14
  0.63407220D-13  0.23696726D-12  0.66110175D-12  0.88569408D-12 -0.10458396D-11
  0.10869802D-11 -0.55470597D-12 -0.26927621D-12 -0.36182379D-12 -0.33923280D-12
 -0.24155396D-12  0.11087349D-02  0.10395094D-02  0.74019263D-03 -0.27326542D-11
 -0.25620370D-11 -0.18243230D-11 -0.97840751D-13  0.14406506D-03 -0.17252513D-11
 -0.17071061D-13  0.71627648D-04  0.54488419D-12  0.10064875D-14 -0.87391450D-05
  0.50900013D-13  0.78996031D-13 -0.15324684D-11  0.14534724D-11 -0.11649124D-06
  0.10922258D-12  0.18434770D-03 -0.83538896D-13  0.27519278D-12 -0.19165389D-12
 -0.40879795D-05 -0.26621074D-13  0.74346869D-04  0.10593233D-13 -0.26239465D-12
  0.25180142D-12  0.74290881D-06  0.21113371D-14  0.54664823D-04  0.53629238D-14
  0.25490885D-03 -0.30242017D-12 -0.98365017D-14  0.37098714D-04  0.38558908D-12
 -0.62522697D-14 -0.80182527D-03  0.52167144D-12 -0.10774718D-04 -0.21254921D-14
 -0.25880948D-03  0.14610688D-12  0.18126678D-13  0.27159618D-04 -0.21943042D-12
 -0.11750202D-13  0.74926883D-03 -0.21889024D-12 -0.36393153D-05 -0.27070512D-03
 -0.50646039D-03 -0.87505122D-03 -0.14185608D-02 -0.21542208D-02 -0.29941642D-02
 -0.35598318D-02 -0.31712219D-02 -0.15748958D-02 -0.25354491D-03 -0.26750485D-05
 -0.15756050D-05 -0.52559545D-04 -0.18315949D-03 -0.65958699D-03 -0.14539774D-02
 -0.20467310D-02  0.97635738D-04  0.26785029D-02  0.15837820D-02  0.27586384D-06
  0.33413848D-05  0.69681057D-05  0.19983314D-04  0.10377057D-05 -0.86177741D-04
 -0.22266673D-03  0.18141837D-03  0.81567530D-04 -0.10093961D-03 -0.57223665D-04
  0.24295254D-01  0.32002533D-01  0.35303804D-01  0.29322573D-01  0.15571100D-01
  0.40174252D-02 -0.46637026D+01 -0.61431873D+01 -0.67768972D+01 -0.56287437D+01
 -0.29890191D+01 -0.77118255D+00  0.67690413D+01  0.89164110D+01  0.98361970D+01
  0.81697318D+01  0.43383543D+01  0.11193181D+01 -0.11264692D-05  0.10889980D-04
  0.15356008D-04  0.21963154D-04 -0.11121832D-06 -0.20142283D-04  0.23742111D-03
 -0.22952345D-02 -0.32365203D-02 -0.46290802D-02  0.23441010D-04  0.42453031D-02
 -0.33426149D-03  0.32314251D-02  0.45566466D-02  0.65172101D-02 -0.33002235D-04
 -0.59768963D-02  0.15497654D-03 -0.29932132D-01  0.43665531D-01 -0.26736478D-06
  0.34401316D-03 -0.55702645D-03  0.16416922D-07  0.10938720D-04 -0.17210000D-04
 -0.14412662D-04 -0.74744452D-03  0.76185718D-03  0.89456523D-05 -0.10679368D-04
  0.68708823D-03  0.58497814D-04  0.43196998D-03 -0.49046779D-03 -0.50798717D-05
  0.69842608D-05 -0.35214688D-03  0.47678040D-05 -0.18286828D-05 -0.29391212D-05
  0.62281717D-07  0.67949292D-06 -0.48912169D-05 -0.70293449D-07 -0.13872375D-04
 -0.26403504D-05  0.24629068D-05  0.18485546D-04  0.37033114D-04 -0.22520265D-05
  0.23131579D-04 -0.29112063D-04  0.14840483D-06 -0.18734706D-06  0.75039499D-04
 -0.42061616D-04 -0.31955777D-05  0.11413436D-04  0.51323413D-04  0.37576188D-05
 -0.23653193D-03  0.74861437D-04  0.24161105D-05  0.27070521D-03  0.50646057D-03
  0.87505153D-03  0.14185613D-02  0.21542215D-02  0.29941652D-02  0.35598330D-02
  0.31712230D-02  0.15748964D-02  0.25354499D-03  0.26750495D-05  0.15756051D-05
  0.52559547D-04  0.18315950D-03  0.65958701D-03  0.14539775D-02  0.20467310D-02
 -0.97635740D-04 -0.26785030D-02 -0.15837820D-02 -0.27586384D-06 -0.33413848D-05
 -0.69681057D-05 -0.19983314D-04 -0.10377057D-05  0.86177741D-04  0.22266673D-03
 -0.18141837D-03 -0.81567533D-04  0.10093961D-03  0.57223665D-04 -0.24295253D-01
 -0.32002531D-01 -0.35303801D-01 -0.29322571D-01 -0.15571099D-01 -0.40174249D-02
 -0.46637025D+01 -0.61431872D+01 -0.67768971D+01 -0.56287437D+01 -0.29890191D+01
 -0.77118255D+00 -0.67690413D+01 -0.89164109D+01 -0.98361970D+01 -0.81697317D+01
 -0.43383543D+01 -0.11193181D+01  0.11264691D-05 -0.10889979D-04 -0.15356007D-04
 -0.21963152D-04  0.11121831D-06  0.20142282D-04  0.23742111D-03 -0.22952345D-02
 -0.32365203D-02 -0.46290802D-02  0.23441010D-04  0.42453031D-02  0.33426149D-03
 -0.32314250D-02 -0.45566466D-02 -0.65172101D-02  0.33002234D-04  0.59768963D-02
 -0.15497653D-03 -0.29932132D-01 -0.43665531D-01  0.26736469D-06  0.34401316D-03
  0.55702645D-03 -0.16416927D-07  0.10938720D-04  0.17210000D-04  0.14412662D-04
  0.74744452D-03 -0.76185718D-03  0.89456521D-05  0.10679368D-04  0.68708823D-03
 -0.58497814D-04 -0.43196998D-03  0.49046779D-03 -0.50798716D-05 -0.69842608D-05
 -0.35214688D-03 -0.47678040D-05  0.18286826D-05  0.29391214D-05  0.62281714D-07
 -0.67949293D-06 -0.48912170D-05  0.70293446D-07 -0.13872375D-04  0.26403503D-05
 -0.24629068D-05  0.18485546D-04 -0.37033114D-04  0.22520265D-05  0.23131579D-04
  0.29112063D-04  0.14840483D-06  0.18734707D-06  0.75039499D-04  0.42061617D-04
  0.31955777D-05  0.11413436D-04 -0.51323413D-04 -0.37576189D-05 -0.23653193D-03
 -0.74861437D-04  0.24161105D-05
MO    2     MO 0.0        OCC NO =    2.0000377  ORB. ENERGY =    0.000000
  0.55198278D-02  0.10288051D-01  0.17444837D-01  0.26400906D-01  0.32933049D-01
  0.28261456D-01  0.10822636D-01  0.87606735D-06  0.93996278D-05  0.34648798D-04
  0.10131105D-03  0.12208474D-03 -0.14706401D-03  0.54192193D-03  0.20318896D-03
  0.29984340D-03  0.13083658D-04  0.12686748D-04  0.85584050D-05 -0.15691598D-11
 -0.15215572D-11 -0.10264335D-11  0.15917551D-02  0.15434670D-02  0.10412137D-02
 -0.80737535D-06 -0.19444364D-11  0.58597811D-03 -0.87280978D-05 -0.15599113D-11
  0.49672841D-03 -0.87659468D-06 -0.35471344D-13  0.10487315D-04  0.13180023D-03
 -0.21754012D-03  0.85739892D-04 -0.84255256D-13 -0.11609312D-04 -0.32113025D-12
 -0.76420904D-04  0.24747439D-03 -0.17105349D-03  0.30701190D-13  0.30696409D-05
 -0.23205854D-12  0.58114578D-04  0.22151687D-04 -0.80266265D-04  0.32827021D-13
 -0.34936475D-06  0.21390238D-12  0.12704815D-05 -0.30996938D-12  0.32756121D-04
 -0.59394034D-05  0.50258976D-12 -0.37207580D-04  0.21279590D-05  0.42731838D-12
 -0.61060783D-04  0.18593445D-12 -0.10338540D-05 -0.30998918D-13  0.34749968D-04
  0.11312045D-05 -0.44449438D-12  0.32346184D-04  0.19703576D-05  0.53749114D-12
 -0.13659609D-03 -0.56561019D-13 -0.38866260D-02 -0.72454539D-02 -0.12245804D-01
 -0.18407728D-01 -0.22610597D-01 -0.19082546D-01 -0.71755356D-02 -0.41651141D-05
 -0.31131647D-04 -0.11634607D-03 -0.32458743D-03 -0.43485767D-03  0.51348582D-03
 -0.10468466D-03 -0.12116199D-04  0.85705138D-04  0.65473356D-05  0.61385433D-05
  0.43710085D-05  0.20863318D-11  0.19560687D-11  0.13928375D-11  0.97955280D-03
  0.91839302D-03  0.65395054D-03  0.55992152D-05  0.32299249D-12  0.82765081D-03
  0.11502362D-05  0.14284188D-12 -0.20439923D-03  0.84216845D-07 -0.24333373D-13
 -0.21904501D-04 -0.68360019D-04  0.68324104D-03 -0.61488102D-03 -0.15055665D-12
 -0.46503703D-05  0.44620372D-12  0.82248450D-04 -0.16602982D-03  0.83781371D-04
  0.32002864D-15  0.76145137D-05  0.23433360D-15 -0.13298908D-06  0.11544245D-03
 -0.11530946D-03 -0.69194395D-14  0.57038866D-06  0.10413097D-12  0.63088455D-06
  0.57111104D-12  0.13660474D-03 -0.67318614D-06  0.75255680D-13 -0.17582270D-03
 -0.12194675D-05 -0.17885888D-11 -0.23399153D-03  0.20782909D-13 -0.55851769D-07
 -0.56193258D-12 -0.68548478D-04 -0.37912574D-05  0.54702443D-13  0.94824365D-04
  0.39588127D-05  0.16310953D-11  0.11082107D-03 -0.56224604D-13 -0.14773110D-02
 -0.27638912D-02 -0.47753910D-02 -0.77414700D-02 -0.11756165D-01 -0.16339963D-01
 -0.19426964D-01 -0.17306215D-01 -0.85946322D-02 -0.13836631D-02 -0.14598463D-04
 -0.72290332D-05 -0.24114845D-03 -0.84035406D-03 -0.30262510D-02 -0.66709938D-02
 -0.93906062D-02  0.44796252D-03  0.12289239D-01  0.72665501D-02  0.91735618D-07
  0.11111424D-05  0.23171702D-05  0.66452408D-05  0.34507810D-06 -0.28657501D-04
 -0.74045480D-04  0.60328771D-04  0.32809673D-03 -0.19061137D-03 -0.16752701D-03
 -0.34188225D-01 -0.45033890D-01 -0.49679430D-01 -0.41262656D-01 -0.21911616D-01
 -0.56533113D-02  0.41036186D+01  0.54054257D+01  0.59630306D+01  0.49527638D+01
  0.26300550D+01  0.67856795D+00 -0.71180873D+01 -0.93761861D+01 -0.10343401D+02
 -0.85910043D+01 -0.45620617D+01 -0.11770358D+01  0.14252249D-05 -0.13778157D-04
 -0.19428640D-04 -0.27788095D-04  0.14071500D-06  0.25484304D-04 -0.17585395D-03
  0.17000428D-02  0.23972379D-02  0.34286843D-02 -0.17362375D-04 -0.31444269D-02
  0.33297764D-03 -0.32190135D-02 -0.45391451D-02 -0.64921783D-02  0.32875477D-04
  0.59539398D-02 -0.21732351D-03  0.26398277D-01 -0.46088179D-01  0.43294688D-05
 -0.16712618D-03  0.22059126D-03  0.18177041D-06 -0.11655976D-04  0.71512795D-05
  0.22385621D-04  0.42852709D-03 -0.45091271D-03 -0.87576571D-05  0.28664475D-05
 -0.39947896D-03  0.46928270D-05 -0.27386757D-03  0.26917474D-03  0.33278222D-05
 -0.16734171D-05  0.44937060D-03 -0.66201721D-06  0.38041333D-04 -0.37379316D-04
 -0.16811148D-06  0.12498562D-05 -0.16751398D-04  0.29980349D-06 -0.32804198D-04
  0.10008116D-04  0.10574857D-05  0.51278873D-04  0.52465277D-05 -0.19568961D-05
  0.47133722D-04 -0.35270877D-04 -0.16583048D-05 -0.33678519D-06 -0.48109766D-04
 -0.13469812D-04  0.37654346D-06  0.14126364D-04 -0.40054969D-04  0.63381210D-06
  0.13020293D-03  0.80464406D-04  0.77527732D-06 -0.14773110D-02 -0.27638913D-02
 -0.47753911D-02 -0.77414700D-02 -0.11756165D-01 -0.16339963D-01 -0.19426964D-01
 -0.17306215D-01 -0.85946323D-02 -0.13836631D-02 -0.14598463D-04 -0.72290332D-05
 -0.24114844D-03 -0.84035405D-03 -0.30262510D-02 -0.66709937D-02 -0.93906061D-02
  0.44796252D-03  0.12289239D-01  0.72665500D-02  0.91735618D-07  0.11111424D-05
  0.23171702D-05  0.66452408D-05  0.34507810D-06 -0.28657501D-04 -0.74045480D-04
  0.60328772D-04  0.32809673D-03 -0.19061137D-03 -0.16752701D-03 -0.34188223D-01
 -0.45033888D-01 -0.49679427D-01 -0.41262654D-01 -0.21911614D-01 -0.56533110D-02
 -0.41036186D+01 -0.54054257D+01 -0.59630307D+01 -0.49527639D+01 -0.26300551D+01
 -0.67856795D+00 -0.71180873D+01 -0.93761861D+01 -0.10343401D+02 -0.85910044D+01
 -0.45620617D+01 -0.11770358D+01  0.14252248D-05 -0.13778157D-04 -0.19428639D-04
 -0.27788094D-04  0.14071499D-06  0.25484303D-04  0.17585395D-03 -0.17000428D-02
 -0.23972379D-02 -0.34286843D-02  0.17362375D-04  0.31444269D-02  0.33297764D-03
 -0.32190136D-02 -0.45391451D-02 -0.64921783D-02  0.32875477D-04  0.59539398D-02
 -0.21732349D-03 -0.26398278D-01 -0.46088179D-01  0.43294687D-05  0.16712618D-03
  0.22059126D-03  0.18177041D-06  0.11655976D-04  0.71512796D-05  0.22385621D-04
  0.42852710D-03 -0.45091272D-03  0.87576570D-05  0.28664477D-05  0.39947896D-03
  0.46928268D-05 -0.27386757D-03  0.26917475D-03 -0.33278221D-05 -0.16734172D-05
 -0.44937060D-03 -0.66201724D-06  0.38041333D-04 -0.37379316D-04  0.16811148D-06
  0.12498562D-05  0.16751398D-04  0.29980350D-06  0.32804198D-04  0.10008116D-04
  0.10574857D-05 -0.51278873D-04  0.52465275D-05 -0.19568962D-05 -0.47133722D-04
 -0.35270877D-04  0.16583048D-05 -0.33678518D-06  0.48109766D-04 -0.13469812D-04
  0.37654345D-06 -0.14126364D-04 -0.40054969D-04  0.63381209D-06 -0.13020293D-03
  0.80464406D-04 -0.77527727D-06
MO    3     MO 0.0        OCC NO =    2.0000335  ORB. ENERGY =    0.000000
 -0.13146605D-11 -0.24503109D-11 -0.41548465D-11 -0.62879184D-11 -0.78436826D-11
 -0.67310466D-11 -0.25776333D-11 -0.70126583D-16 -0.75241221D-15 -0.27735331D-14
 -0.81096481D-14 -0.97725203D-14  0.11772036D-13 -0.10775726D-12  0.55619909D-13
  0.36262272D-13 -0.55696958D-11 -0.54007314D-11 -0.36433015D-11 -0.24742904D-04
 -0.23992294D-04 -0.16185060D-04  0.39480805D-12  0.38283100D-12  0.25825553D-12
 -0.15757771D-11 -0.71019747D-05  0.10445288D-12 -0.31433605D-12 -0.27341764D-04
  0.54668278D-13  0.17385249D-13 -0.27209259D-05  0.30458121D-14  0.23699113D-13
 -0.40069999D-13  0.16370886D-13  0.11478193D-03 -0.37601388D-12 -0.25145462D-04
 -0.13253207D-13  0.35734383D-13 -0.22481176D-13  0.33560453D-04  0.15950135D-12
  0.12161293D-04  0.32734566D-14  0.10385791D-13 -0.13659248D-13 -0.15845278D-03
  0.20866604D-13  0.75146240D-05  0.66249204D-13  0.40216074D-05 -0.49660390D-14
 -0.34524735D-12 -0.21149310D-04 -0.58787923D-14  0.14649974D-12  0.90844878D-05
  0.20776909D-13 -0.78010336D-03 -0.30272575D-13 -0.11950351D-05  0.12818519D-13
  0.14230108D-12  0.73427877D-05  0.60387152D-14 -0.51483358D-13 -0.37576825D-05
 -0.44494271D-13  0.24247384D-03 -0.38825723D-11 -0.72378969D-11 -0.12233032D-10
 -0.18388528D-10 -0.22587014D-10 -0.19062643D-10 -0.71680515D-11 -0.16092709D-14
 -0.12028303D-13 -0.44952515D-13 -0.12541052D-12 -0.16801552D-12  0.19839500D-12
 -0.19384365D-12 -0.21072264D-12 -0.42510667D-14  0.40081231D-11  0.37578702D-11
  0.26758274D-11  0.32923527D-04  0.30867899D-04  0.21979783D-04 -0.11890245D-12
 -0.11147861D-12 -0.79379411D-13  0.89045912D-12  0.25903355D-05  0.93127816D-13
  0.92394314D-13  0.19300508D-04  0.17960398D-13 -0.18111499D-13  0.17347452D-05
 -0.30547106D-14 -0.62948353D-14  0.78093690D-13 -0.71798855D-13  0.12033210D-02
 -0.11068131D-11 -0.11342089D-04  0.52288670D-13 -0.58261299D-13  0.59726293D-14
 -0.45937704D-04  0.74090782D-13  0.20923956D-04  0.46931723D-14  0.77347133D-14
 -0.12427886D-13  0.72311148D-04 -0.47354027D-13  0.35066702D-05 -0.89221343D-13
 -0.15389523D-05  0.63612690D-14  0.14667772D-12  0.36037296D-05 -0.81599591D-14
  0.12098630D-12  0.10131274D-05 -0.10923848D-13 -0.35036107D-03  0.33844613D-13
 -0.16704016D-06 -0.69432497D-14 -0.11995559D-12 -0.26764987D-05  0.89986517D-14
  0.18421753D-13  0.31776192D-05  0.11831098D-13  0.35473608D-03  0.20108089D-03
  0.37620088D-03  0.64999169D-03  0.10537129D-02  0.16001641D-02  0.22240776D-02
  0.26442579D-02  0.23555968D-02  0.11698392D-02  0.18833421D-03  0.19870372D-05
  0.94103645D-06  0.31391401D-04  0.10939275D-03  0.39394099D-03  0.86839389D-03
  0.12224183D-02 -0.58313338D-04 -0.15997467D-02 -0.94592019D-03  0.18043954D-07
  0.21855634D-06  0.45577621D-06  0.13070868D-05  0.67875199D-07 -0.56367923D-05
 -0.14564389D-04  0.11866378D-04 -0.53861612D-04  0.25522056D-05  0.80579533D-05
  0.82135556D+01  0.10819174D+02  0.11935243D+02  0.99131535D+01  0.52641596D+01
  0.13581807D+01  0.95546718D-01  0.12585738D+00  0.13884039D+00  0.11531781D+00
  0.61236960D-01  0.15799456D-01  0.36375066D-01  0.47914471D-01  0.52857162D-01
  0.43902012D-01  0.23313186D-01  0.60149240D-02 -0.35883640D-03  0.34689994D-02
  0.48916513D-02  0.69963553D-02 -0.35428559D-04 -0.64163177D-02 -0.45187455D-05
  0.43684324D-04  0.61599457D-04  0.88103519D-04 -0.44614382D-06 -0.80799236D-04
 -0.19123605D-05  0.18487470D-04  0.26069263D-04  0.37285943D-04 -0.18881076D-06
 -0.34194726D-04  0.53684083D-01  0.63421662D-03  0.24684151D-03 -0.42410390D-03
 -0.35305659D-05  0.43694007D-05 -0.15174163D-04 -0.32841555D-06  0.29884370D-06
 -0.84434887D-05  0.89387362D-05 -0.49524743D-06  0.90715361D-03  0.51076983D-03
  0.35099423D-05  0.56025859D-05 -0.53239251D-05 -0.27866076D-06 -0.47158595D-03
 -0.31775167D-03 -0.98815340D-05 -0.54238649D-06 -0.41328358D-06  0.95567007D-06
  0.21548426D-04  0.36847169D-04  0.94846695D-06  0.22707651D-04  0.13830917D-05
 -0.73070311D-06  0.41978509D-04 -0.19782130D-05  0.17412198D-05 -0.11010146D-03
 -0.21710623D-05  0.45088954D-06  0.97216471D-05  0.17568007D-04 -0.10260228D-05
  0.10150720D-05 -0.90533613D-04  0.33840392D-05  0.78969865D-06  0.37829592D-04
 -0.30597099D-06 -0.38349146D-05 -0.14737378D-03 -0.20108091D-03 -0.37620093D-03
 -0.64999176D-03 -0.10537130D-02 -0.16001643D-02 -0.22240779D-02 -0.26442582D-02
 -0.23555971D-02 -0.11698393D-02 -0.18833423D-03 -0.19870374D-05 -0.94103650D-06
 -0.31391402D-04 -0.10939275D-03 -0.39394101D-03 -0.86839394D-03 -0.12224184D-02
  0.58313342D-04  0.15997468D-02  0.94592024D-03 -0.18043955D-07 -0.21855636D-06
 -0.45577625D-06 -0.13070869D-05 -0.67875205D-07  0.56367928D-05  0.14564390D-04
 -0.11866379D-04  0.53861615D-04 -0.25522055D-05 -0.80579533D-05 -0.82135556D+01
 -0.10819174D+02 -0.11935243D+02 -0.99131535D+01 -0.52641596D+01 -0.13581807D+01
  0.95546718D-01  0.12585738D+00  0.13884039D+00  0.11531781D+00  0.61236960D-01
  0.15799456D-01 -0.36375068D-01 -0.47914474D-01 -0.52857165D-01 -0.43902014D-01
 -0.23313188D-01 -0.60149243D-02  0.35883640D-03 -0.34689994D-02 -0.48916513D-02
 -0.69963554D-02  0.35428559D-04  0.64163177D-02 -0.45187455D-05  0.43684324D-04
  0.61599457D-04  0.88103519D-04 -0.44614382D-06 -0.80799236D-04  0.19123606D-05
 -0.18487471D-04 -0.26069265D-04 -0.37285945D-04  0.18881077D-06  0.34194728D-04
 -0.53684083D-01  0.63421662D-03 -0.24684153D-03  0.42410390D-03 -0.35305659D-05
 -0.43694005D-05  0.15174163D-04 -0.32841555D-06 -0.29884370D-06  0.84434888D-05
 -0.89387361D-05  0.49524730D-06  0.90715361D-03 -0.51076983D-03  0.35099424D-05
 -0.56025859D-05  0.53239251D-05  0.27866082D-06 -0.47158595D-03  0.31775167D-03
 -0.98815342D-05  0.54238649D-06  0.41328359D-06 -0.95567008D-06  0.21548426D-04
 -0.36847169D-04  0.94846694D-06 -0.22707651D-04  0.13830917D-05  0.73070311D-06
 -0.41978509D-04 -0.19782130D-05 -0.17412198D-05  0.11010146D-03 -0.21710623D-05
 -0.45088954D-06  0.97216472D-05 -0.17568007D-04 -0.10260227D-05 -0.10150720D-05
  0.90533613D-04  0.33840393D-05 -0.78969868D-06 -0.37829592D-04 -0.30597103D-06
  0.38349147D-05 -0.14737378D-03
MO    4     MO 0.0        OCC NO =    2.0000300  ORB. ENERGY =    0.000000
  0.19924019D-03  0.37135096D-03  0.62967774D-03  0.95295030D-03  0.11887304D-02
  0.10201075D-02  0.39064699D-03  0.11418217D-06  0.12250998D-05  0.45159485D-05
  0.13204369D-04  0.15911906D-04 -0.19167577D-04  0.13884208D-04 -0.49146425D-05
  0.24929674D-06 -0.52007989D-02 -0.50430255D-02 -0.34019952D-02  0.43711999D-13
  0.42385935D-13  0.28593301D-13  0.55303196D-04  0.53625498D-04  0.36175444D-04
 -0.14811199D-02 -0.43830916D-13  0.20835775D-04 -0.31065122D-03 -0.22263082D-13
  0.24542895D-05  0.14435779D-04  0.11224605D-14 -0.52103746D-07  0.33392974D-05
 -0.59511655D-05  0.26118681D-05 -0.13006686D-12 -0.38601305D-03  0.66365886D-14
 -0.22907788D-05  0.25608179D-05 -0.27003906D-06 -0.31889727D-13  0.17456298D-03
 -0.21401500D-13 -0.17421987D-05  0.40991049D-05 -0.23569061D-05  0.17365626D-12
  0.27553932D-04 -0.21367822D-14  0.62846740D-04 -0.14450014D-13 -0.69719054D-05
 -0.33236151D-03  0.40041980D-13 -0.21285465D-05  0.14382129D-03  0.33080630D-14
  0.23044263D-04  0.85974115D-12 -0.26613712D-04  0.41110110D-15  0.28469777D-05
  0.13858777D-03 -0.24595874D-13  0.21918268D-05 -0.58746636D-04  0.23362570D-13
 -0.10732760D-04 -0.26694405D-12 -0.49322957D-03 -0.91947928D-03 -0.15540453D-02
 -0.23360199D-02 -0.28693820D-02 -0.24216572D-02 -0.91060634D-03 -0.12306057D-06
 -0.91980153D-06 -0.34375083D-05 -0.95901130D-05 -0.12848107D-04  0.15171219D-04
 -0.33391409D-04 -0.73730997D-06 -0.37999849D-05  0.37014468D-02  0.34703417D-02
  0.24710900D-02 -0.11379228D-12 -0.10668750D-12 -0.75967853D-13 -0.43847604D-04
 -0.41109916D-04 -0.29272709D-04  0.84370306D-03  0.21502921D-13 -0.25572479D-05
  0.87947671D-04 -0.17432364D-13 -0.98115632D-05 -0.15969561D-04 -0.21553031D-14
  0.10632101D-06  0.86179146D-05 -0.46625469D-05 -0.39553678D-05 -0.13103092D-11
 -0.10321344D-02  0.61054711D-13  0.12580327D-05 -0.53988869D-05  0.41408542D-05
  0.56322001D-13  0.91051554D-04 -0.36460433D-13  0.54805359D-06 -0.32277812D-05
  0.26797276D-05 -0.77997904D-13 -0.41687137D-04  0.16120494D-15 -0.86510184D-04
  0.22946387D-13 -0.15902847D-05  0.13298947D-03  0.82683763D-15 -0.68003016D-07