 cl2co-wavefunction
GAUSSIAN            192 MOL ORBITALS    372 PRIMITIVES        4 NUCLEI
  O    1    (CENTRE  1)   0.00000000  0.00000000  1.29143317  CHARGE =  8.0
  C    2    (CENTRE  2)   0.00000000  0.00000000 -0.93482295  CHARGE =  6.0
  Cl   3    (CENTRE  3)   0.00000000 -2.73418805 -2.77752892  CHARGE = 17.0
  Cl   4    (CENTRE  4)   0.00000000  2.73418805 -2.79642618  CHARGE = 17.0
CENTRE ASSIGNMENTS    1  1  1  1  1  1  1  1  1  1  1  1  1  1  1  1  1  1  1  1
CENTRE ASSIGNMENTS    1  1  1  1  1  1  1  1  1  1  1  1  1  1  1  1  1  1  1  1
CENTRE ASSIGNMENTS    1  1  1  1  1  1  1  1  1  1  1  1  1  1  1  1  1  1  1  1
CENTRE ASSIGNMENTS    1  1  1  1  1  1  1  1  1  1  1  1  2  2  2  2  2  2  2  2
CENTRE ASSIGNMENTS    2  2  2  2  2  2  2  2  2  2  2  2  2  2  2  2  2  2  2  2
CENTRE ASSIGNMENTS    2  2  2  2  2  2  2  2  2  2  2  2  2  2  2  2  2  2  2  2
CENTRE ASSIGNMENTS    2  2  2  2  2  2  2  2  2  2  2  2  2  2  2  2  2  2  2  2
CENTRE ASSIGNMENTS    2  2  2  2  3  3  3  3  3  3  3  3  3  3  3  3  3  3  3  3
CENTRE ASSIGNMENTS    3  3  3  3  3  3  3  3  3  3  3  3  3  3  3  3  3  3  3  3
CENTRE ASSIGNMENTS    3  3  3  3  3  3  3  3  3  3  3  3  3  3  3  3  3  3  3  3
CENTRE ASSIGNMENTS    3  3  3  3  3  3  3  3  3  3  3  3  3  3  3  3  3  3  3  3
CENTRE ASSIGNMENTS    3  3  3  3  3  3  3  3  3  3  3  3  3  3  3  3  3  3  3  3
CENTRE ASSIGNMENTS    3  3  3  3  3  3  3  3  3  3  3  3  3  3  3  3  3  3  4  4
CENTRE ASSIGNMENTS    4  4  4  4  4  4  4  4  4  4  4  4  4  4  4  4  4  4  4  4
CENTRE ASSIGNMENTS    4  4  4  4  4  4  4  4  4  4  4  4  4  4  4  4  4  4  4  4
CENTRE ASSIGNMENTS    4  4  4  4  4  4  4  4  4  4  4  4  4  4  4  4  4  4  4  4
CENTRE ASSIGNMENTS    4  4  4  4  4  4  4  4  4  4  4  4  4  4  4  4  4  4  4  4
CENTRE ASSIGNMENTS    4  4  4  4  4  4  4  4  4  4  4  4  4  4  4  4  4  4  4  4
CENTRE ASSIGNMENTS    4  4  4  4  4  4  4  4  4  4  4  4
TYPE ASSIGNMENTS      1  1  1  1  1  1  1  1  1  1  1  1  1  1  1  1  2  2  2  3
TYPE ASSIGNMENTS      3  3  4  4  4  2  3  4  2  3  4  2  3  4  5  6  7  8  9 10
TYPE ASSIGNMENTS      5  6  7  8  9 10  5  6  7  8  9 10 11 12 13 17 14 15 18 19
TYPE ASSIGNMENTS     16 20 11 12 13 17 14 15 18 19 16 20  1  1  1  1  1  1  1  1
TYPE ASSIGNMENTS      1  1  1  1  1  1  1  1  2  2  2  3  3  3  4  4  4  2  3  4
TYPE ASSIGNMENTS      2  3  4  2  3  4  5  6  7  8  9 10  5  6  7  8  9 10  5  6
TYPE ASSIGNMENTS      7  8  9 10 11 12 13 17 14 15 18 19 16 20 11 12 13 17 14 15
TYPE ASSIGNMENTS     18 19 16 20  1  1  1  1  1  1  1  1  1  1  1  1  1  1  1  1
TYPE ASSIGNMENTS      1  1  1  1  1  1  1  1  1  1  1  1  1  1  1  2  2  2  2  2
TYPE ASSIGNMENTS      2  3  3  3  3  3  3  4  4  4  4  4  4  2  2  2  2  2  2  3
TYPE ASSIGNMENTS      3  3  3  3  3  4  4  4  4  4  4  2  3  4  2  3  4  2  3  4
TYPE ASSIGNMENTS      5  6  7  8  9 10  5  6  7  8  9 10  5  6  7  8  9 10 11 12
TYPE ASSIGNMENTS     13 17 14 15 18 19 16 20 11 12 13 17 14 15 18 19 16 20  1  1
TYPE ASSIGNMENTS      1  1  1  1  1  1  1  1  1  1  1  1  1  1  1  1  1  1  1  1
TYPE ASSIGNMENTS      1  1  1  1  1  1  1  1  1  2  2  2  2  2  2  3  3  3  3  3
TYPE ASSIGNMENTS      3  4  4  4  4  4  4  2  2  2  2  2  2  3  3  3  3  3  3  4
TYPE ASSIGNMENTS      4  4  4  4  4  2  3  4  2  3  4  2  3  4  5  6  7  8  9 10
TYPE ASSIGNMENTS      5  6  7  8  9 10  5  6  7  8  9 10 11 12 13 17 14 15 18 19
TYPE ASSIGNMENTS     16 20 11 12 13 17 14 15 18 19 16 20
EXPONENTS  0.1533000D+05 0.2299000D+04 0.5224000D+03 0.1473000D+03 0.4755000D+02
EXPONENTS  0.1676000D+02 0.6207000D+01 0.5224000D+03 0.1473000D+03 0.4755000D+02
EXPONENTS  0.1676000D+02 0.6207000D+01 0.6882000D+00 0.1752000D+01 0.2384000D+00
EXPONENTS  0.7376000D-01 0.3446000D+02 0.7749000D+01 0.2280000D+01 0.3446000D+02
EXPONENTS  0.7749000D+01 0.2280000D+01 0.3446000D+02 0.7749000D+01 0.2280000D+01
EXPONENTS  0.7156000D+00 0.7156000D+00 0.7156000D+00 0.2140000D+00 0.2140000D+00
EXPONENTS  0.2140000D+00 0.5974000D-01 0.5974000D-01 0.5974000D-01 0.2314000D+01
EXPONENTS  0.2314000D+01 0.2314000D+01 0.2314000D+01 0.2314000D+01 0.2314000D+01
EXPONENTS  0.6450000D+00 0.6450000D+00 0.6450000D+00 0.6450000D+00 0.6450000D+00
EXPONENTS  0.6450000D+00 0.2140000D+00 0.2140000D+00 0.2140000D+00 0.2140000D+00
EXPONENTS  0.2140000D+00 0.2140000D+00 0.1428000D+01 0.1428000D+01 0.1428000D+01
EXPONENTS  0.1428000D+01 0.1428000D+01 0.1428000D+01 0.1428000D+01 0.1428000D+01
EXPONENTS  0.1428000D+01 0.1428000D+01 0.5000000D+00 0.5000000D+00 0.5000000D+00
EXPONENTS  0.5000000D+00 0.5000000D+00 0.5000000D+00 0.5000000D+00 0.5000000D+00
EXPONENTS  0.5000000D+00 0.5000000D+00 0.8236000D+04 0.1235000D+04 0.2808000D+03
EXPONENTS  0.7927000D+02 0.2559000D+02 0.8997000D+01 0.3319000D+01 0.2808000D+03
EXPONENTS  0.7927000D+02 0.2559000D+02 0.8997000D+01 0.3319000D+01 0.3643000D+00
EXPONENTS  0.9059000D+00 0.1285000D+00 0.4402000D-01 0.1871000D+02 0.4133000D+01
EXPONENTS  0.1200000D+01 0.1871000D+02 0.4133000D+01 0.1200000D+01 0.1871000D+02
EXPONENTS  0.4133000D+01 0.1200000D+01 0.3827000D+00 0.3827000D+00 0.3827000D+00
EXPONENTS  0.1209000D+00 0.1209000D+00 0.1209000D+00 0.3569000D-01 0.3569000D-01
EXPONENTS  0.3569000D-01 0.1097000D+01 0.1097000D+01 0.1097000D+01 0.1097000D+01
EXPONENTS  0.1097000D+01 0.1097000D+01 0.3180000D+00 0.3180000D+00 0.3180000D+00
EXPONENTS  0.3180000D+00 0.3180000D+00 0.3180000D+00 0.1000000D+00 0.1000000D+00
EXPONENTS  0.1000000D+00 0.1000000D+00 0.1000000D+00 0.1000000D+00 0.7610000D+00
EXPONENTS  0.7610000D+00 0.7610000D+00 0.7610000D+00 0.7610000D+00 0.7610000D+00
EXPONENTS  0.7610000D+00 0.7610000D+00 0.7610000D+00 0.7610000D+00 0.2680000D+00
EXPONENTS  0.2680000D+00 0.2680000D+00 0.2680000D+00 0.2680000D+00 0.2680000D+00
EXPONENTS  0.2680000D+00 0.2680000D+00 0.2680000D+00 0.2680000D+00 0.4561000D+06
EXPONENTS  0.6833000D+05 0.1555000D+05 0.4405000D+04 0.1439000D+04 0.5204000D+03
EXPONENTS  0.2031000D+03 0.8396000D+02 0.3620000D+02 0.1583000D+02 0.6334000D+01
EXPONENTS  0.4405000D+04 0.1439000D+04 0.5204000D+03 0.2031000D+03 0.8396000D+02
EXPONENTS  0.3620000D+02 0.1583000D+02 0.6334000D+01 0.2694000D+01 0.1439000D+04
EXPONENTS  0.2031000D+03 0.8396000D+02 0.3620000D+02 0.1583000D+02 0.6334000D+01
EXPONENTS  0.2694000D+01 0.4313000D+00 0.9768000D+00 0.1625000D+00 0.5910000D-01
EXPONENTS  0.6633000D+03 0.1568000D+03 0.4998000D+02 0.1842000D+02 0.7240000D+01
EXPONENTS  0.2922000D+01 0.6633000D+03 0.1568000D+03 0.4998000D+02 0.1842000D+02
EXPONENTS  0.7240000D+01 0.2922000D+01 0.6633000D+03 0.1568000D+03 0.4998000D+02
EXPONENTS  0.1842000D+02 0.7240000D+01 0.2922000D+01 0.1568000D+03 0.4998000D+02
EXPONENTS  0.1842000D+02 0.7240000D+01 0.2922000D+01 0.3818000D+00 0.1568000D+03
EXPONENTS  0.4998000D+02 0.1842000D+02 0.7240000D+01 0.2922000D+01 0.3818000D+00
EXPONENTS  0.1568000D+03 0.4998000D+02 0.1842000D+02 0.7240000D+01 0.2922000D+01
EXPONENTS  0.3818000D+00 0.1022000D+01 0.1022000D+01 0.1022000D+01 0.1301000D+00
EXPONENTS  0.1301000D+00 0.1301000D+00 0.4190000D-01 0.4190000D-01 0.4190000D-01
EXPONENTS  0.1046000D+01 0.1046000D+01 0.1046000D+01 0.1046000D+01 0.1046000D+01
EXPONENTS  0.1046000D+01 0.3440000D+00 0.3440000D+00 0.3440000D+00 0.3440000D+00
EXPONENTS  0.3440000D+00 0.3440000D+00 0.1350000D+00 0.1350000D+00 0.1350000D+00
EXPONENTS  0.1350000D+00 0.1350000D+00 0.1350000D+00 0.7060000D+00 0.7060000D+00
EXPONENTS  0.7060000D+00 0.7060000D+00 0.7060000D+00 0.7060000D+00 0.7060000D+00
EXPONENTS  0.7060000D+00 0.7060000D+00 0.7060000D+00 0.3120000D+00 0.3120000D+00
EXPONENTS  0.3120000D+00 0.3120000D+00 0.3120000D+00 0.3120000D+00 0.3120000D+00
EXPONENTS  0.3120000D+00 0.3120000D+00 0.3120000D+00 0.4561000D+06 0.6833000D+05
EXPONENTS  0.1555000D+05 0.4405000D+04 0.1439000D+04 0.5204000D+03 0.2031000D+03
EXPONENTS  0.8396000D+02 0.3620000D+02 0.1583000D+02 0.6334000D+01 0.4405000D+04
EXPONENTS  0.1439000D+04 0.5204000D+03 0.2031000D+03 0.8396000D+02 0.3620000D+02
EXPONENTS  0.1583000D+02 0.6334000D+01 0.2694000D+01 0.1439000D+04 0.2031000D+03
EXPONENTS  0.8396000D+02 0.3620000D+02 0.1583000D+02 0.6334000D+01 0.2694000D+01
EXPONENTS  0.4313000D+00 0.9768000D+00 0.1625000D+00 0.5910000D-01 0.6633000D+03
EXPONENTS  0.1568000D+03 0.4998000D+02 0.1842000D+02 0.7240000D+01 0.2922000D+01
EXPONENTS  0.6633000D+03 0.1568000D+03 0.4998000D+02 0.1842000D+02 0.7240000D+01
EXPONENTS  0.2922000D+01 0.6633000D+03 0.1568000D+03 0.4998000D+02 0.1842000D+02
EXPONENTS  0.7240000D+01 0.2922000D+01 0.1568000D+03 0.4998000D+02 0.1842000D+02
EXPONENTS  0.7240000D+01 0.2922000D+01 0.3818000D+00 0.1568000D+03 0.4998000D+02
EXPONENTS  0.1842000D+02 0.7240000D+01 0.2922000D+01 0.3818000D+00 0.1568000D+03
EXPONENTS  0.4998000D+02 0.1842000D+02 0.7240000D+01 0.2922000D+01 0.3818000D+00
EXPONENTS  0.1022000D+01 0.1022000D+01 0.1022000D+01 0.1301000D+00 0.1301000D+00
EXPONENTS  0.1301000D+00 0.4190000D-01 0.4190000D-01 0.4190000D-01 0.1046000D+01
EXPONENTS  0.1046000D+01 0.1046000D+01 0.1046000D+01 0.1046000D+01 0.1046000D+01
EXPONENTS  0.3440000D+00 0.3440000D+00 0.3440000D+00 0.3440000D+00 0.3440000D+00
EXPONENTS  0.3440000D+00 0.1350000D+00 0.1350000D+00 0.1350000D+00 0.1350000D+00
EXPONENTS  0.1350000D+00 0.1350000D+00 0.7060000D+00 0.7060000D+00 0.7060000D+00
EXPONENTS  0.7060000D+00 0.7060000D+00 0.7060000D+00 0.7060000D+00 0.7060000D+00
EXPONENTS  0.7060000D+00 0.7060000D+00 0.3120000D+00 0.3120000D+00 0.3120000D+00
EXPONENTS  0.3120000D+00 0.3120000D+00 0.3120000D+00 0.3120000D+00 0.3120000D+00
EXPONENTS  0.3120000D+00 0.3120000D+00
MO    1     MO 0.0        OCC NO =    2.0000387  ORB. ENERGY =    0.000000
 -0.25022653D-03 -0.46638110D-03 -0.79081470D-03 -0.11968140D-02 -0.14929311D-02
 -0.12811570D-02 -0.49061506D-03 -0.78235253D-07 -0.83941292D-06 -0.30942341D-05
 -0.90473590D-05 -0.10902507D-04  0.13133226D-04 -0.22419786D-04  0.13641619D-05
 -0.96819233D-05  0.66783161D-12  0.64757202D-12  0.43684826D-12 -0.87059644D-03
 -0.84418570D-03 -0.56948269D-03 -0.64704318D-04 -0.62741424D-04 -0.42324994D-04
  0.19105669D-12 -0.93521455D-03 -0.25188700D-04  0.46869712D-13 -0.74955720D-03
 -0.21127361D-04 -0.13092744D-14 -0.19399856D-04 -0.47322137D-06 -0.86930622D-05
  0.14742580D-04 -0.60495181D-05 -0.10809383D-13  0.63402468D-13 -0.20130789D-03
  0.65777661D-05 -0.13512290D-04  0.69345239D-05 -0.27205530D-15 -0.30686197D-13
 -0.66261556D-04 -0.17939346D-05 -0.20525137D-05  0.38464483D-05  0.88839826D-14
 -0.68320296D-14  0.10921938D-03 -0.60055551D-14 -0.14493412D-03  0.14397746D-05
  0.43232510D-13  0.22421619D-03 -0.23906029D-05 -0.25215845D-13  0.21058618D-03
 -0.19287209D-05  0.53150902D-13  0.21805648D-14 -0.10436917D-04 -0.24374095D-05
 -0.18707584D-13 -0.19905966D-03 -0.18823823D-05  0.12165889D-13  0.23037041D-03
  0.91946108D-05 -0.14690295D-13  0.15641622D-03  0.29159134D-03  0.49282909D-03
  0.74081404D-03  0.90995736D-03  0.76797191D-03  0.28877749D-03  0.17031868D-06
  0.12730266D-05  0.47575911D-05  0.13272938D-04  0.17782078D-04 -0.20997319D-04
  0.27852846D-05  0.92121150D-06 -0.30907896D-05 -0.45667656D-12 -0.42816331D-12
 -0.30487778D-12  0.10943875D-02  0.10260578D-02  0.73061429D-03 -0.43172043D-04
 -0.40476534D-04 -0.28821704D-04 -0.11349960D-12  0.14176706D-03 -0.34610005D-04
 -0.13053105D-13  0.73848355D-04  0.72815426D-05  0.19613248D-14 -0.89602533D-05
  0.80288527D-06  0.20666822D-05 -0.30688488D-04  0.28621805D-04 -0.65488300D-13
  0.12656419D-12  0.17767440D-03 -0.38362134D-05  0.12871836D-04 -0.90356229D-05
  0.14007269D-14 -0.17601629D-13  0.80213332D-04 -0.80013294D-08 -0.38602030D-05
  0.38682044D-05 -0.39897912D-14  0.44463042D-14  0.53920585D-04  0.11326666D-13
  0.25183687D-03 -0.40429360D-05 -0.12291777D-13  0.38389710D-04  0.66269977D-05
 -0.21688221D-13 -0.79390033D-03  0.55018103D-05  0.17246284D-13 -0.38851046D-14
 -0.25450709D-03  0.92283179D-06  0.14540900D-13  0.25758668D-04 -0.41119110D-05
 -0.28855865D-14  0.73776259D-03  0.13434157D-05 -0.19706376D-13 -0.16285846D-03
 -0.30469081D-03 -0.52643813D-03 -0.85341807D-03 -0.12959972D-02 -0.18013142D-02
 -0.21416246D-02 -0.19078336D-02 -0.94747050D-03 -0.15253474D-03 -0.16093316D-05
 -0.10622419D-05 -0.35434613D-04 -0.12348253D-03 -0.44468059D-03 -0.98024302D-03
 -0.13798658D-02  0.65824096D-04  0.18057940D-02  0.10677547D-02  0.28305305D-06
  0.34284636D-05  0.71496994D-05  0.20504093D-04  0.10647490D-05 -0.88423594D-04
 -0.22846959D-03  0.18614626D-03  0.55252595D-04 -0.92625681D-04 -0.52923298D-04
  0.57993991D-09  0.76391653D-09  0.84271951D-09  0.69994453D-09  0.37168997D-09
  0.95897955D-10 -0.48125309D+01 -0.63392289D+01 -0.69931618D+01 -0.58083685D+01
 -0.30844048D+01 -0.79579257D+00  0.70269275D+01  0.92561073D+01  0.10210935D+02
  0.84809813D+01  0.45036364D+01  0.11619617D+01 -0.20626308D-13  0.19940187D-12
  0.28117745D-12  0.40215814D-12 -0.20364722D-14 -0.36881695D-12  0.24347243D-03
 -0.23537348D-02 -0.33190118D-02 -0.47470649D-02  0.24038468D-04  0.43535062D-02
 -0.34596936D-03  0.33446092D-02  0.47162481D-02  0.67454824D-02 -0.34158173D-04
 -0.61862436D-02  0.38847050D-11 -0.30882641D-01  0.45326464D-01 -0.23215790D-13
  0.34753873D-03 -0.56453168D-03 -0.19327698D-14  0.11350518D-04 -0.17584410D-04
 -0.14951543D-04 -0.76086329D-03  0.77581483D-03  0.90991821D-14  0.30975535D-13
  0.70269226D-03  0.58842692D-04  0.43702318D-03 -0.49586587D-03 -0.28197286D-13
 -0.16014286D-13 -0.36642847D-03  0.50922395D-05 -0.37904099D-05 -0.13018295D-05
 -0.37974906D-15 -0.24633429D-14 -0.41109117D-05 -0.24652907D-14 -0.13000472D-04
 -0.28449074D-05 -0.49494515D-14  0.16943080D-04  0.36869153D-04  0.12345324D-13
  0.22058337D-04 -0.28334431D-04  0.16295138D-14  0.34250855D-14  0.76030534D-04
 -0.41289502D-04 -0.30570786D-14  0.11391860D-04  0.52596190D-04 -0.72181779D-14
 -0.23948346D-03  0.71272317D-04 -0.89169875D-14  0.27831868D-03  0.52070455D-03
  0.89966197D-03  0.14584578D-02  0.22148081D-02  0.30783748D-02  0.36599518D-02
  0.32604122D-02  0.16191897D-02  0.26067584D-03  0.27502841D-05  0.16216905D-05
  0.54096882D-04  0.18851680D-03  0.67887953D-03  0.14965054D-02  0.21065967D-02
 -0.10049153D-03 -0.27568476D-02 -0.16301067D-02 -0.28395378D-06 -0.34393737D-05
 -0.71724512D-05 -0.20569341D-04 -0.10681373D-05  0.88704976D-04  0.22919662D-03
 -0.18673862D-03 -0.78146211D-04  0.10018263D-03  0.64268394D-04  0.15102472D-08
  0.19893488D-08  0.21945632D-08  0.18227565D-08  0.96793430D-09  0.24973211D-09
 -0.45546465D+01 -0.59995349D+01 -0.66184262D+01 -0.54971211D+01 -0.29191239D+01
 -0.75314922D+00 -0.64698500D+01 -0.85223059D+01 -0.94014375D+01 -0.78086299D+01
 -0.41465992D+01 -0.10698443D+01 -0.61108891D-13  0.59076144D-12  0.83303530D-12
  0.11914608D-11 -0.60333900D-14 -0.10926820D-11  0.23240815D-03 -0.22467725D-02
 -0.31681837D-02 -0.45313408D-02  0.22946072D-04  0.41556669D-02  0.31875018D-03
 -0.30814716D-02 -0.43451967D-02 -0.62147807D-02  0.31470774D-04  0.56995400D-02
  0.99604991D-11 -0.29225840D-01 -0.41715318D-01 -0.71708291D-13  0.33928732D-03
  0.54245265D-03 -0.36512315D-14  0.10636660D-04  0.17022270D-04  0.12929599D-04
  0.73134864D-03 -0.74427824D-03 -0.10844978D-12  0.88237200D-13  0.65325638D-03
 -0.57438047D-04 -0.41519267D-03  0.47263071D-03  0.79706732D-13 -0.51764414D-13
 -0.31688835D-03 -0.48890241D-05  0.10335226D-05  0.38555015D-05 -0.19976132D-14
  0.15368619D-14 -0.48957736D-05  0.47305923D-15 -0.15945822D-04  0.14523902D-05
 -0.31372321D-14  0.20049916D-04 -0.35842464D-04  0.17180545D-14  0.27787550D-04
  0.31485293D-04 -0.21628321D-14  0.52402059D-14  0.71656020D-04  0.43445178D-04
 -0.12757143D-13  0.11771981D-04 -0.49353788D-04 -0.29634745D-14 -0.22674004D-03
 -0.80981747D-04  0.25094127D-13
MO    2     MO 0.0        OCC NO =    2.0000377  ORB. ENERGY =    0.000000
  0.54568829D-02  0.10170733D-01  0.17245906D-01  0.26099845D-01  0.32557500D-01
  0.27939179D-01  0.10699221D-01  0.84567764D-06  0.90735661D-05  0.33446873D-04
  0.97796695D-04  0.11784977D-03 -0.14196254D-03  0.53750458D-03  0.21299733D-03
  0.30013471D-03 -0.23872600D-12 -0.23148391D-12 -0.15615768D-12 -0.83846820D-05
 -0.81303211D-05 -0.54846666D-05  0.15831505D-02  0.15351234D-02  0.10355852D-02
 -0.67462654D-13 -0.32950904D-04  0.58139132D-03 -0.11067153D-13 -0.22172727D-04
  0.49284427D-03  0.20705488D-14 -0.30506731D-06  0.10322128D-04  0.13199058D-03
 -0.21461932D-03  0.82628738D-04 -0.11717709D-13 -0.25593967D-13 -0.57256544D-05
 -0.74928236D-04  0.24475710D-03 -0.16982886D-03 -0.46116983D-14  0.72944472D-14
  0.31881724D-05  0.58154757D-04  0.21351686D-04 -0.79506443D-04  0.14786443D-13
 -0.64970245D-15  0.30849010D-05  0.66195538D-14 -0.35727970D-05  0.34444841D-04
 -0.31739000D-13  0.12948590D-04 -0.42435983D-04  0.11880339D-13 -0.22301994D-05
 -0.60898541D-04  0.66517509D-13 -0.14317427D-14 -0.25120570D-06  0.33740389D-04
  0.58704518D-14 -0.76488319D-05  0.33023442D-04 -0.15752238D-14  0.84024490D-05
 -0.13424461D-03 -0.22258505D-13 -0.38172903D-02 -0.71161981D-02 -0.12027344D-01
 -0.18079342D-01 -0.22207233D-01 -0.18742121D-01 -0.70475271D-02 -0.41396255D-05
 -0.30941136D-04 -0.11563409D-03 -0.32260111D-03 -0.43219654D-03  0.51034353D-03
 -0.10214662D-03 -0.81778020D-05  0.86471761D-04  0.21396011D-12  0.20060121D-12
  0.14284001D-12  0.20593711D-04  0.19307913D-04  0.13748384D-04  0.97689626D-03
  0.91590234D-03  0.65217703D-03  0.47456750D-13  0.93376620D-05  0.82233046D-03
  0.36327492D-14  0.79550954D-06 -0.20960113D-03 -0.15070297D-14 -0.53489026D-06
 -0.21905753D-04 -0.69193861D-04  0.67980726D-03 -0.61061340D-03 -0.10843184D-12
 -0.49662504D-13  0.15576257D-05  0.82101402D-04 -0.16196440D-03  0.79862994D-04
  0.67408205D-15  0.13263513D-14  0.49413912D-05 -0.13203422D-06  0.11498443D-03
 -0.11485239D-03 -0.73989844D-14 -0.32901230D-14  0.10024215D-05 -0.60466391D-14
  0.73613202D-05  0.13738510D-03  0.88576838D-14  0.20435948D-07 -0.17674131D-03
  0.92822336D-14 -0.22104396D-04 -0.23541398D-03  0.33206930D-13  0.17751285D-14
 -0.84193119D-05 -0.69638146D-04 -0.54799880D-14  0.12652367D-05  0.95006492D-04
  0.15460242D-15  0.23992699D-04  0.11390795D-03 -0.30854013D-13 -0.15430173D-02
 -0.28868208D-02 -0.49877860D-02 -0.80857871D-02 -0.12279044D-01 -0.17066715D-01
 -0.20291017D-01 -0.18075943D-01 -0.89768955D-02 -0.14452042D-02 -0.15247758D-04
 -0.75504018D-05 -0.25186876D-03 -0.87771222D-03 -0.31607838D-02 -0.69675546D-02
 -0.98080681D-02  0.46787681D-03  0.12835560D-01  0.75895865D-02  0.99226001D-07
  0.12018692D-05  0.25063715D-05  0.71878371D-05  0.37325437D-06 -0.30997439D-04
 -0.80091430D-04  0.65254728D-04  0.34737077D-03 -0.19706655D-03 -0.17155189D-03
 -0.12125576D-08 -0.15972220D-08 -0.17619859D-08 -0.14634672D-08 -0.77714171D-09
 -0.20050662D-09  0.39303553D+01  0.51771973D+01  0.57112591D+01  0.47436478D+01
  0.25190086D+01  0.64991739D+00 -0.68627380D+01 -0.90398314D+01 -0.99723491D+01
 -0.82828167D+01 -0.43984055D+01 -0.11348116D+01  0.51136345D-13 -0.49435328D-12
 -0.69708973D-12 -0.99702272D-12  0.50487827D-14  0.91436387D-12 -0.16715114D-03
  0.16159096D-02  0.22786013D-02  0.32590026D-02 -0.16503130D-04 -0.29888127D-02
  0.32049467D-03 -0.30983362D-02 -0.43689775D-02 -0.62487936D-02  0.31643011D-04
  0.57307331D-02 -0.79605792D-11  0.25285702D-01 -0.44440536D-01  0.57361206D-13
 -0.15739591D-03  0.19968361D-03  0.28343105D-14 -0.11286654D-04  0.64050191D-05
  0.21435677D-04  0.40132954D-03 -0.42276521D-03 -0.10499886D-12 -0.68227372D-13
 -0.37165556D-03  0.74574013D-05 -0.25916841D-03  0.25171101D-03  0.65481492D-13
  0.42703387D-13  0.43685964D-03 -0.27349089D-06  0.37561719D-04 -0.37288228D-04
 -0.33060392D-14 -0.35833724D-14 -0.17032608D-04 -0.17401092D-14 -0.33631094D-04
  0.98812942D-05 -0.17640957D-14  0.52744503D-04  0.59642045D-05  0.69844233D-14
  0.48148777D-04 -0.35608087D-04  0.51020551D-15 -0.30516715D-14 -0.45410865D-04
 -0.15142175D-04  0.10701746D-13  0.14616740D-04 -0.37814975D-04 -0.15467317D-14
  0.12161586D-03  0.83241501D-04  0.19162930D-13 -0.14714374D-02 -0.27529024D-02
 -0.47564047D-02 -0.77106909D-02 -0.11709424D-01 -0.16274998D-01 -0.19349725D-01
 -0.17237408D-01 -0.85604611D-02 -0.13781618D-02 -0.14540421D-04 -0.71967776D-05
 -0.24007245D-03 -0.83660443D-03 -0.30127480D-02 -0.66412281D-02 -0.93487057D-02
  0.44596373D-03  0.12234405D-01  0.72341270D-02  0.88454836D-07  0.10714041D-05
  0.22343003D-05  0.64075841D-05  0.33273692D-06 -0.27632610D-04 -0.71397358D-04
  0.58171207D-04  0.32758912D-03 -0.18960579D-03 -0.16579475D-03  0.34604131D-09
  0.45581736D-09  0.50283790D-09  0.41764625D-09  0.22178175D-09  0.57220850D-10
 -0.43306941D+01 -0.57045372D+01 -0.62929975D+01 -0.52268272D+01 -0.27755903D+01
 -0.71611679D+00 -0.73291392D+01 -0.96541908D+01 -0.10650084D+02 -0.88457284D+01
 -0.46973272D+01 -0.12119350D+01 -0.16608635D-13  0.16056160D-12  0.22640862D-12
  0.32382421D-12 -0.16398002D-14 -0.29697735D-12  0.18686910D-03 -0.18065303D-02
 -0.25473963D-02 -0.36434505D-02  0.18449921D-04  0.33413878D-02  0.34300117D-03
 -0.33159146D-02 -0.46757857D-02 -0.66876105D-02  0.33865118D-04  0.61331696D-02
  0.22292849D-11 -0.27861806D-01 -0.47443378D-01 -0.19760376D-13  0.18545746D-03
  0.23834892D-03  0.32803990D-16  0.12242752D-04  0.77286715D-05  0.21512717D-04
  0.45657511D-03 -0.47808782D-03 -0.64571508D-13  0.27567916D-13  0.40900916D-03
  0.41934639D-05 -0.29054532D-03  0.28635186D-03  0.20064703D-13 -0.15902465D-13
 -0.44999921D-03 -0.47133945D-06  0.37824320D-04 -0.37352981D-04 -0.17764593D-14
  0.41654529D-14  0.16532876D-04  0.27493650D-14  0.32181622D-04  0.10313891D-04
  0.56855091D-14 -0.51117249D-04  0.36455041D-05 -0.13933604D-13 -0.45427617D-04
 -0.34587178D-04 -0.64131756D-15 -0.33019490D-15  0.50723864D-04 -0.11395942D-04
 -0.46802567D-14 -0.14394398D-04 -0.40634839D-04  0.56708414D-14 -0.13777719D-03
  0.74822665D-04  0.60670678D-14
MO    3     MO 0.0        OCC NO =    2.0000334  ORB. ENERGY =    0.000000
 -0.39674012D-11 -0.73945835D-11 -0.12538556D-10 -0.18975771D-10 -0.23670778D-10
 -0.20313049D-10 -0.77788187D-11 -0.32189679D-15 -0.34537413D-14 -0.12731141D-13
 -0.37225108D-13 -0.44858066D-13  0.54036294D-13 -0.36919210D-12 -0.41937366D-13
  0.10364282D-13  0.23322708D-04  0.22615181D-04  0.15256068D-04 -0.22574462D-12
 -0.21889634D-12 -0.14766618D-12 -0.18513289D-13 -0.17951663D-13 -0.12110086D-13
  0.70513165D-05 -0.11606173D-12 -0.26156760D-13  0.41909382D-05 -0.86729334D-13
  0.47905807D-13  0.27637434D-06 -0.79325525D-14  0.24833057D-14  0.96369120D-14
 -0.38193912D-13  0.28557000D-13  0.11621533D-03  0.46890207D-05 -0.68245293D-13
 -0.17822243D-13  0.20105946D-13 -0.22837028D-14  0.31901426D-04 -0.16022603D-05
  0.21700420D-13  0.13899982D-14  0.62517579D-14 -0.76417561D-14 -0.15816627D-03
 -0.78159231D-06  0.13541279D-13  0.64929584D-07 -0.15747790D-13  0.25132923D-13
  0.21425295D-05  0.18865377D-13 -0.45056874D-13 -0.23373183D-05  0.28377994D-13
 -0.30341895D-13 -0.77855585D-03  0.14814572D-06  0.25196743D-14  0.36378379D-14
 -0.10103248D-05 -0.15230295D-13  0.11995211D-13  0.56588770D-06  0.76712718D-14
 -0.22908724D-13  0.24364158D-03 -0.14698972D-10 -0.27401845D-10 -0.46312852D-10
 -0.69616854D-10 -0.85511836D-10 -0.72168973D-10 -0.27137418D-10 -0.23591029D-14
 -0.17632833D-13 -0.65897922D-13 -0.18384494D-12 -0.24630154D-12  0.29083619D-12
 -0.11483078D-11  0.79917611D-13  0.25694763D-13 -0.26278533D-04 -0.24637795D-04
 -0.17543578D-04  0.17876071D-12  0.16759953D-12  0.11934085D-12  0.59078737D-13
  0.55390071D-13  0.39441030D-13 -0.41977808D-05  0.88526432D-14  0.24864895D-13
 -0.79148310D-06 -0.28012757D-13 -0.13744492D-14 -0.64746163D-07  0.28479411D-14
 -0.29685312D-14  0.45184074D-13  0.59480609D-13 -0.10466468D-12  0.11958725D-02
  0.46650582D-05  0.17762008D-13  0.24301201D-15 -0.10217905D-13  0.99748931D-14
 -0.42737347D-04 -0.36849173D-05  0.76678420D-13  0.23551324D-15  0.96981613D-14
 -0.99336745D-14  0.71655308D-04 -0.50640460D-06  0.18614971D-13  0.43062087D-06
  0.15243295D-13 -0.30540342D-14 -0.11483609D-05 -0.75825789D-16  0.20069299D-13
 -0.14350172D-06 -0.45654061D-13 -0.10907196D-13 -0.34729950D-03 -0.99846051D-07
 -0.20524964D-13  0.10626040D-14  0.11341620D-05  0.85612908D-14  0.65365237D-14
 -0.83462389D-06  0.53013601D-13 -0.97243356D-14  0.35292109D-03  0.20737827D-10
  0.38798261D-10  0.67034789D-10  0.10867127D-09  0.16502775D-09  0.22937305D-09
  0.27270698D-09  0.24293685D-09  0.12064758D-09  0.19423239D-10  0.20492665D-12
  0.62438420D-13  0.20828412D-11  0.72582845D-11  0.26138258D-10  0.57618536D-10
  0.81108303D-10 -0.38691304D-11 -0.10614430D-09 -0.62762460D-10  0.13296193D-14
  0.16104936D-13  0.33585147D-13  0.96316354D-13  0.50015741D-14 -0.41536283D-12
 -0.10732178D-11  0.87440733D-12 -0.40194682D-11 -0.12559551D-13 -0.18882425D-13
  0.82213806D+01  0.10829481D+02  0.11946613D+02  0.99225977D+01  0.52691747D+01
  0.13594746D+01  0.23640355D-09  0.31139878D-09  0.34352160D-09  0.28532158D-09
  0.15151368D-09  0.39091321D-10 -0.11883438D-09 -0.15653267D-09 -0.17268004D-09
 -0.14342430D-09 -0.76162281D-10 -0.19650267D-10 -0.35896759D-03  0.34702677D-02
  0.48934396D-02  0.69989132D-02 -0.35441511D-04 -0.64186635D-02 -0.10623963D-13
  0.10270564D-12  0.14482567D-12  0.20713902D-12 -0.10489229D-14 -0.18996602D-12
  0.29166599D-14 -0.28196392D-13 -0.39759856D-13 -0.56867111D-13  0.28796705D-15
  0.52152505D-13  0.53737220D-01  0.15169841D-11 -0.75565543D-12 -0.42519991D-03
 -0.22551694D-13 -0.37274160D-13 -0.15207200D-04 -0.16046001D-14 -0.14305152D-15
  0.23372112D-13 -0.37498057D-13  0.14125945D-13  0.90617019D-03  0.51090790D-03
 -0.69226603D-13  0.72471653D-14  0.66066171D-14 -0.13853782D-13 -0.47104457D-03
 -0.31806902D-03 -0.14843096D-14  0.26694950D-15  0.33571479D-14 -0.36240974D-14
  0.21319648D-04  0.36506849D-04 -0.85783602D-14  0.22622397D-04 -0.28117668D-14
 -0.32726468D-14  0.41760341D-04  0.49812215D-14  0.88722028D-14 -0.10962753D-03
  0.34540788D-14  0.94573751D-15  0.10334541D-04  0.17616812D-04  0.21927493D-14
 -0.97130718D-15 -0.90326771D-04  0.19416881D-14 -0.73789226D-15  0.37476335D-04
 -0.85199360D-14  0.36518138D-14 -0.14784920D-03 -0.51372504D-10 -0.96112474D-10
 -0.16606104D-09 -0.26920445D-09 -0.40881279D-09 -0.56821132D-09 -0.67555972D-09
 -0.60181207D-09 -0.29887260D-09 -0.48115960D-10 -0.50765180D-12 -0.94088447D-13
 -0.31386331D-11 -0.10937508D-10 -0.39387737D-10 -0.86825365D-10 -0.12222209D-09
  0.58303921D-11  0.15994883D-09  0.94576743D-10 -0.22422439D-14 -0.27159049D-13
 -0.56637334D-13 -0.16242601D-12 -0.84345567D-14  0.70045974D-12  0.18098534D-11
 -0.14745834D-11  0.59990991D-11 -0.95411808D-13 -0.48055285D-13 -0.82070263D+01
 -0.10810574D+02 -0.11925755D+02 -0.99052732D+01 -0.52599749D+01 -0.13571010D+01
  0.60330810D-10  0.79469791D-10  0.87667619D-10  0.72814822D-10  0.38666691D-10
  0.99762084D-11 -0.15337945D-08 -0.20203661D-08 -0.22287801D-08 -0.18511764D-08
 -0.98302603D-09 -0.25362585D-09  0.35813243D-03 -0.34621939D-02 -0.48820548D-02
 -0.69826298D-02  0.35359054D-04  0.64037301D-02  0.48049405D-14 -0.46451073D-13
 -0.65500861D-13 -0.93683559D-13  0.47440036D-15  0.85916660D-13  0.67854953D-13
 -0.65597802D-12 -0.92499749D-12 -0.13229911D-11  0.66994407D-14  0.12133076D-11
 -0.53628118D-01  0.80859201D-12 -0.10160117D-10  0.42495148D-03  0.14003985D-13
  0.67580384D-13  0.15288266D-04  0.16994724D-14  0.12785022D-14 -0.60172402D-14
  0.11068845D-12 -0.10467121D-12  0.90181489D-03 -0.51635190D-03 -0.14685449D-13
 -0.20031430D-13 -0.38792436D-13  0.58823865D-13 -0.46420693D-03  0.31753614D-03
 -0.84686076D-13  0.13556192D-14  0.28610152D-14 -0.42166344D-14  0.21325012D-04
 -0.36580353D-04  0.14642451D-14 -0.22344519D-04  0.48201353D-15  0.19542582D-14
 -0.42611989D-04  0.50703637D-14 -0.16995196D-14  0.10964555D-03 -0.65164043D-14
 -0.41632551D-14  0.13505812D-04 -0.17375337D-04  0.83316085D-14  0.11403783D-14
  0.88760630D-04  0.28712882D-14 -0.10908700D-13 -0.36634618D-04 -0.27866114D-13
  0.74875650D-14 -0.14783469D-03
MO    4     MO 0.0        OCC NO =    2.0000299  ORB. ENERGY =    0.000000
  0.30219907D-10  0.56324937D-10  0.95506846D-10  0.14453946D-09  0.18030158D-09
  0.15472558D-09  0.59251677D-10  0.38624050D-14  0.41441071D-13  0.15275959D-12
  0.44666008D-12  0.53824712D-12 -0.64837569D-12  0.27195155D-11 -0.11736430D-13
 -0.10805740D-13 -0.51959712D-02 -0.50383442D-02 -0.33988372D-02 -0.10291907D-11
 -0.99796873D-12 -0.67322381D-12 -0.14031457D-11 -0.13605793D-11 -0.91783879D-12
 -0.14779584D-02 -0.44107202D-12 -0.14048434D-12 -0.30792554D-03 -0.31345154D-12
 -0.10069823D-12  0.14553917D-04 -0.30110437D-13 -0.22729937D-15 -0.10247201D-12
 -0.25030966D-13  0.12750297D-12  0.35432961D-05 -0.38292658D-03 -0.21892056D-12
  0.44669411D-14 -0.74928055D-14  0.30258644D-14 -0.26368596D-05  0.17386587D-03
  0.73595041D-13 -0.10047799D-13 -0.17217075D-14  0.11769507D-13 -0.71376501D-06
  0.26622191D-04  0.56007349D-13  0.63541035D-04 -0.52682879D-13  0.22863305D-13
 -0.33076492D-03  0.23007642D-13 -0.50213468D-13  0.14014182D-03  0.13504099D-12
 -0.18376448D-13 -0.18772829D-05 -0.26534120D-04  0.96242511D-14  0.12286128D-14
  0.13769680D-03 -0.38974614D-13  0.14307352D-14 -0.58094441D-04  0.10101861D-13
 -0.51165737D-14  0.31158511D-05 -0.14851128D-10 -0.27685495D-10 -0.46792259D-10
 -0.70337492D-10 -0.86397011D-10 -0.72916030D-10 -0.27418331D-10 -0.22649549D-14
 -0.16929135D-13 -0.63268041D-13 -0.17650798D-12 -0.23647204D-12  0.27922938D-12
 -0.11431443D-11 -0.22054624D-12 -0.19904368D-13  0.36824264D-02  0.34525088D-02
  0.24583919D-02  0.11768544D-11  0.11033758D-11  0.78566928D-12 -0.13811660D-12
 -0.12949309D-12 -0.92206795D-13  0.84088863D-03 -0.21275129D-13 -0.95491804D-13
  0.88317906D-04 -0.10667381D-12  0.75627289D-13 -0.15946845D-04  0.12399929D-13
  0.11450664D-14  0.29091005D-13 -0.43703865D-13  0.14612860D-13 -0.66170612D-05
 -0.10283695D-02  0.11460251D-13  0.24967811D-13 -0.15218869D-13 -0.97489414D-14
  0.34275591D-05  0.87843780D-04  0.36364138D-12  0.47107526D-14 -0.80181660D-14
  0.33074134D-14  0.25304307D-06 -0.41855673D-04  0.69005122D-13 -0.85496917D-04
  0.37371088D-13 -0.43381250D-13  0.12919343D-03  0.42972893D-14  0.55548049D-13