 cl2co-wavefunction
GAUSSIAN            192 MOL ORBITALS    372 PRIMITIVES        4 NUCLEI
  O    1    (CENTRE  1)   0.01889726  0.00000000  1.29143317  CHARGE =  8.0
  C    2    (CENTRE  2)   0.00000000  0.00000000 -0.93482295  CHARGE =  6.0
  Cl   3    (CENTRE  3)   0.00000000 -2.73418805 -2.77752892  CHARGE = 17.0
  Cl   4    (CENTRE  4)   0.00000000  2.73418805 -2.77752892  CHARGE = 17.0
CENTRE ASSIGNMENTS    1  1  1  1  1  1  1  1  1  1  1  1  1  1  1  1  1  1  1  1
CENTRE ASSIGNMENTS    1  1  1  1  1  1  1  1  1  1  1  1  1  1  1  1  1  1  1  1
CENTRE ASSIGNMENTS    1  1  1  1  1  1  1  1  1  1  1  1  1  1  1  1  1  1  1  1
CENTRE ASSIGNMENTS    1  1  1  1  1  1  1  1  1  1  1  1  2  2  2  2  2  2  2  2
CENTRE ASSIGNMENTS    2  2  2  2  2  2  2  2  2  2  2  2  2  2  2  2  2  2  2  2
CENTRE ASSIGNMENTS    2  2  2  2  2  2  2  2  2  2  2  2  2  2  2  2  2  2  2  2
CENTRE ASSIGNMENTS    2  2  2  2  2  2  2  2  2  2  2  2  2  2  2  2  2  2  2  2
CENTRE ASSIGNMENTS    2  2  2  2  3  3  3  3  3  3  3  3  3  3  3  3  3  3  3  3
CENTRE ASSIGNMENTS    3  3  3  3  3  3  3  3  3  3  3  3  3  3  3  3  3  3  3  3
CENTRE ASSIGNMENTS    3  3  3  3  3  3  3  3  3  3  3  3  3  3  3  3  3  3  3  3
CENTRE ASSIGNMENTS    3  3  3  3  3  3  3  3  3  3  3  3  3  3  3  3  3  3  3  3
CENTRE ASSIGNMENTS    3  3  3  3  3  3  3  3  3  3  3  3  3  3  3  3  3  3  3  3
CENTRE ASSIGNMENTS    3  3  3  3  3  3  3  3  3  3  3  3  3  3  3  3  3  3  4  4
CENTRE ASSIGNMENTS    4  4  4  4  4  4  4  4  4  4  4  4  4  4  4  4  4  4  4  4
CENTRE ASSIGNMENTS    4  4  4  4  4  4  4  4  4  4  4  4  4  4  4  4  4  4  4  4
CENTRE ASSIGNMENTS    4  4  4  4  4  4  4  4  4  4  4  4  4  4  4  4  4  4  4  4
CENTRE ASSIGNMENTS    4  4  4  4  4  4  4  4  4  4  4  4  4  4  4  4  4  4  4  4
CENTRE ASSIGNMENTS    4  4  4  4  4  4  4  4  4  4  4  4  4  4  4  4  4  4  4  4
CENTRE ASSIGNMENTS    4  4  4  4  4  4  4  4  4  4  4  4
TYPE ASSIGNMENTS      1  1  1  1  1  1  1  1  1  1  1  1  1  1  1  1  2  2  2  3
TYPE ASSIGNMENTS      3  3  4  4  4  2  3  4  2  3  4  2  3  4  5  6  7  8  9 10
TYPE ASSIGNMENTS      5  6  7  8  9 10  5  6  7  8  9 10 11 12 13 17 14 15 18 19
TYPE ASSIGNMENTS     16 20 11 12 13 17 14 15 18 19 16 20  1  1  1  1  1  1  1  1
TYPE ASSIGNMENTS      1  1  1  1  1  1  1  1  2  2  2  3  3  3  4  4  4  2  3  4
TYPE ASSIGNMENTS      2  3  4  2  3  4  5  6  7  8  9 10  5  6  7  8  9 10  5  6
TYPE ASSIGNMENTS      7  8  9 10 11 12 13 17 14 15 18 19 16 20 11 12 13 17 14 15
TYPE ASSIGNMENTS     18 19 16 20  1  1  1  1  1  1  1  1  1  1  1  1  1  1  1  1
TYPE ASSIGNMENTS      1  1  1  1  1  1  1  1  1  1  1  1  1  1  1  2  2  2  2  2
TYPE ASSIGNMENTS      2  3  3  3  3  3  3  4  4  4  4  4  4  2  2  2  2  2  2  3
TYPE ASSIGNMENTS      3  3  3  3  3  4  4  4  4  4  4  2  3  4  2  3  4  2  3  4
TYPE ASSIGNMENTS      5  6  7  8  9 10  5  6  7  8  9 10  5  6  7  8  9 10 11 12
TYPE ASSIGNMENTS     13 17 14 15 18 19 16 20 11 12 13 17 14 15 18 19 16 20  1  1
TYPE ASSIGNMENTS      1  1  1  1  1  1  1  1  1  1  1  1  1  1  1  1  1  1  1  1
TYPE ASSIGNMENTS      1  1  1  1  1  1  1  1  1  2  2  2  2  2  2  3  3  3  3  3
TYPE ASSIGNMENTS      3  4  4  4  4  4  4  2  2  2  2  2  2  3  3  3  3  3  3  4
TYPE ASSIGNMENTS      4  4  4  4  4  2  3  4  2  3  4  2  3  4  5  6  7  8  9 10
TYPE ASSIGNMENTS      5  6  7  8  9 10  5  6  7  8  9 10 11 12 13 17 14 15 18 19
TYPE ASSIGNMENTS     16 20 11 12 13 17 14 15 18 19 16 20
EXPONENTS  0.1533000D+05 0.2299000D+04 0.5224000D+03 0.1473000D+03 0.4755000D+02
EXPONENTS  0.1676000D+02 0.6207000D+01 0.5224000D+03 0.1473000D+03 0.4755000D+02
EXPONENTS  0.1676000D+02 0.6207000D+01 0.6882000D+00 0.1752000D+01 0.2384000D+00
EXPONENTS  0.7376000D-01 0.3446000D+02 0.7749000D+01 0.2280000D+01 0.3446000D+02
EXPONENTS  0.7749000D+01 0.2280000D+01 0.3446000D+02 0.7749000D+01 0.2280000D+01
EXPONENTS  0.7156000D+00 0.7156000D+00 0.7156000D+00 0.2140000D+00 0.2140000D+00
EXPONENTS  0.2140000D+00 0.5974000D-01 0.5974000D-01 0.5974000D-01 0.2314000D+01
EXPONENTS  0.2314000D+01 0.2314000D+01 0.2314000D+01 0.2314000D+01 0.2314000D+01
EXPONENTS  0.6450000D+00 0.6450000D+00 0.6450000D+00 0.6450000D+00 0.6450000D+00
EXPONENTS  0.6450000D+00 0.2140000D+00 0.2140000D+00 0.2140000D+00 0.2140000D+00
EXPONENTS  0.2140000D+00 0.2140000D+00 0.1428000D+01 0.1428000D+01 0.1428000D+01
EXPONENTS  0.1428000D+01 0.1428000D+01 0.1428000D+01 0.1428000D+01 0.1428000D+01
EXPONENTS  0.1428000D+01 0.1428000D+01 0.5000000D+00 0.5000000D+00 0.5000000D+00
EXPONENTS  0.5000000D+00 0.5000000D+00 0.5000000D+00 0.5000000D+00 0.5000000D+00
EXPONENTS  0.5000000D+00 0.5000000D+00 0.8236000D+04 0.1235000D+04 0.2808000D+03
EXPONENTS  0.7927000D+02 0.2559000D+02 0.8997000D+01 0.3319000D+01 0.2808000D+03
EXPONENTS  0.7927000D+02 0.2559000D+02 0.8997000D+01 0.3319000D+01 0.3643000D+00
EXPONENTS  0.9059000D+00 0.1285000D+00 0.4402000D-01 0.1871000D+02 0.4133000D+01
EXPONENTS  0.1200000D+01 0.1871000D+02 0.4133000D+01 0.1200000D+01 0.1871000D+02
EXPONENTS  0.4133000D+01 0.1200000D+01 0.3827000D+00 0.3827000D+00 0.3827000D+00
EXPONENTS  0.1209000D+00 0.1209000D+00 0.1209000D+00 0.3569000D-01 0.3569000D-01
EXPONENTS  0.3569000D-01 0.1097000D+01 0.1097000D+01 0.1097000D+01 0.1097000D+01
EXPONENTS  0.1097000D+01 0.1097000D+01 0.3180000D+00 0.3180000D+00 0.3180000D+00
EXPONENTS  0.3180000D+00 0.3180000D+00 0.3180000D+00 0.1000000D+00 0.1000000D+00
EXPONENTS  0.1000000D+00 0.1000000D+00 0.1000000D+00 0.1000000D+00 0.7610000D+00
EXPONENTS  0.7610000D+00 0.7610000D+00 0.7610000D+00 0.7610000D+00 0.7610000D+00
EXPONENTS  0.7610000D+00 0.7610000D+00 0.7610000D+00 0.7610000D+00 0.2680000D+00
EXPONENTS  0.2680000D+00 0.2680000D+00 0.2680000D+00 0.2680000D+00 0.2680000D+00
EXPONENTS  0.2680000D+00 0.2680000D+00 0.2680000D+00 0.2680000D+00 0.4561000D+06
EXPONENTS  0.6833000D+05 0.1555000D+05 0.4405000D+04 0.1439000D+04 0.5204000D+03
EXPONENTS  0.2031000D+03 0.8396000D+02 0.3620000D+02 0.1583000D+02 0.6334000D+01
EXPONENTS  0.4405000D+04 0.1439000D+04 0.5204000D+03 0.2031000D+03 0.8396000D+02
EXPONENTS  0.3620000D+02 0.1583000D+02 0.6334000D+01 0.2694000D+01 0.1439000D+04
EXPONENTS  0.2031000D+03 0.8396000D+02 0.3620000D+02 0.1583000D+02 0.6334000D+01
EXPONENTS  0.2694000D+01 0.4313000D+00 0.9768000D+00 0.1625000D+00 0.5910000D-01
EXPONENTS  0.6633000D+03 0.1568000D+03 0.4998000D+02 0.1842000D+02 0.7240000D+01
EXPONENTS  0.2922000D+01 0.6633000D+03 0.1568000D+03 0.4998000D+02 0.1842000D+02
EXPONENTS  0.7240000D+01 0.2922000D+01 0.6633000D+03 0.1568000D+03 0.4998000D+02
EXPONENTS  0.1842000D+02 0.7240000D+01 0.2922000D+01 0.1568000D+03 0.4998000D+02
EXPONENTS  0.1842000D+02 0.7240000D+01 0.2922000D+01 0.3818000D+00 0.1568000D+03
EXPONENTS  0.4998000D+02 0.1842000D+02 0.7240000D+01 0.2922000D+01 0.3818000D+00
EXPONENTS  0.1568000D+03 0.4998000D+02 0.1842000D+02 0.7240000D+01 0.2922000D+01
EXPONENTS  0.3818000D+00 0.1022000D+01 0.1022000D+01 0.1022000D+01 0.1301000D+00
EXPONENTS  0.1301000D+00 0.1301000D+00 0.4190000D-01 0.4190000D-01 0.4190000D-01
EXPONENTS  0.1046000D+01 0.1046000D+01 0.1046000D+01 0.1046000D+01 0.1046000D+01
EXPONENTS  0.1046000D+01 0.3440000D+00 0.3440000D+00 0.3440000D+00 0.3440000D+00
EXPONENTS  0.3440000D+00 0.3440000D+00 0.1350000D+00 0.1350000D+00 0.1350000D+00
EXPONENTS  0.1350000D+00 0.1350000D+00 0.1350000D+00 0.7060000D+00 0.7060000D+00
EXPONENTS  0.7060000D+00 0.7060000D+00 0.7060000D+00 0.7060000D+00 0.7060000D+00
EXPONENTS  0.7060000D+00 0.7060000D+00 0.7060000D+00 0.3120000D+00 0.3120000D+00
EXPONENTS  0.3120000D+00 0.3120000D+00 0.3120000D+00 0.3120000D+00 0.3120000D+00
EXPONENTS  0.3120000D+00 0.3120000D+00 0.3120000D+00 0.4561000D+06 0.6833000D+05
EXPONENTS  0.1555000D+05 0.4405000D+04 0.1439000D+04 0.5204000D+03 0.2031000D+03
EXPONENTS  0.8396000D+02 0.3620000D+02 0.1583000D+02 0.6334000D+01 0.4405000D+04
EXPONENTS  0.1439000D+04 0.5204000D+03 0.2031000D+03 0.8396000D+02 0.3620000D+02
EXPONENTS  0.1583000D+02 0.6334000D+01 0.2694000D+01 0.1439000D+04 0.2031000D+03
EXPONENTS  0.8396000D+02 0.3620000D+02 0.1583000D+02 0.6334000D+01 0.2694000D+01
EXPONENTS  0.4313000D+00 0.9768000D+00 0.1625000D+00 0.5910000D-01 0.6633000D+03
EXPONENTS  0.1568000D+03 0.4998000D+02 0.1842000D+02 0.7240000D+01 0.2922000D+01
EXPONENTS  0.6633000D+03 0.1568000D+03 0.4998000D+02 0.1842000D+02 0.7240000D+01
EXPONENTS  0.2922000D+01 0.6633000D+03 0.1568000D+03 0.4998000D+02 0.1842000D+02
EXPONENTS  0.7240000D+01 0.2922000D+01 0.1568000D+03 0.4998000D+02 0.1842000D+02
EXPONENTS  0.7240000D+01 0.2922000D+01 0.3818000D+00 0.1568000D+03 0.4998000D+02
EXPONENTS  0.1842000D+02 0.7240000D+01 0.2922000D+01 0.3818000D+00 0.1568000D+03
EXPONENTS  0.4998000D+02 0.1842000D+02 0.7240000D+01 0.2922000D+01 0.3818000D+00
EXPONENTS  0.1022000D+01 0.1022000D+01 0.1022000D+01 0.1301000D+00 0.1301000D+00
EXPONENTS  0.1301000D+00 0.4190000D-01 0.4190000D-01 0.4190000D-01 0.1046000D+01
EXPONENTS  0.1046000D+01 0.1046000D+01 0.1046000D+01 0.1046000D+01 0.1046000D+01
EXPONENTS  0.3440000D+00 0.3440000D+00 0.3440000D+00 0.3440000D+00 0.3440000D+00
EXPONENTS  0.3440000D+00 0.1350000D+00 0.1350000D+00 0.1350000D+00 0.1350000D+00
EXPONENTS  0.1350000D+00 0.1350000D+00 0.7060000D+00 0.7060000D+00 0.7060000D+00
EXPONENTS  0.7060000D+00 0.7060000D+00 0.7060000D+00 0.7060000D+00 0.7060000D+00
EXPONENTS  0.7060000D+00 0.7060000D+00 0.3120000D+00 0.3120000D+00 0.3120000D+00
EXPONENTS  0.3120000D+00 0.3120000D+00 0.3120000D+00 0.3120000D+00 0.3120000D+00
EXPONENTS  0.3120000D+00 0.3120000D+00
MO    1     MO 0.0        OCC NO =    2.0000387  ORB. ENERGY =    0.000000
 -0.34248107D-10 -0.63832840D-10 -0.10823755D-09 -0.16380602D-09 -0.20433510D-09
 -0.17534992D-09 -0.67149703D-10 -0.53114697D-14 -0.56988584D-13 -0.21007065D-12
 -0.61423426D-12 -0.74018216D-12  0.89162784D-12 -0.32662134D-11 -0.81759357D-12
 -0.13009498D-11  0.61694722D-12  0.59823128D-12  0.40356329D-12 -0.87633352D-03
 -0.84974873D-03 -0.57323547D-03 -0.64546377D-11 -0.62588274D-11 -0.42221680D-11
  0.17440674D-12 -0.94190675D-03 -0.25218510D-11  0.38754833D-13 -0.75995768D-03
 -0.21811422D-11 -0.77246265D-15 -0.19848905D-04 -0.49964082D-13 -0.54542138D-12
  0.99094723D-12 -0.44552584D-12 -0.13668088D-04  0.45856306D-13 -0.20039270D-03
  0.34380943D-12 -0.10967926D-11  0.75298320D-12  0.66499792D-05 -0.12670251D-13
 -0.70646188D-04 -0.25053633D-12 -0.10399797D-12  0.35453430D-12  0.31408651D-05
  0.67334002D-14  0.11215546D-03 -0.12197576D-13 -0.14730478D-03 -0.16019497D-12
  0.62329812D-13  0.22251419D-03  0.19952175D-12 -0.25737083D-13  0.21940016D-03
  0.28106317D-12  0.13467074D-04  0.61432688D-14 -0.10253979D-04 -0.15905561D-12
 -0.16630499D-13 -0.20050654D-03 -0.14815878D-12 -0.17993077D-14  0.23126848D-03
  0.62532562D-12 -0.98278256D-06  0.32083228D-10  0.59809599D-10  0.10108637D-09
  0.15195167D-09  0.18664541D-09  0.15752214D-09  0.59232439D-10  0.20769797D-13
  0.15524136D-12  0.58017242D-12  0.16185907D-11  0.21684653D-11 -0.25605532D-11
  0.16015976D-11 -0.48513239D-13 -0.42626105D-12 -0.53923859D-12 -0.50557046D-12
 -0.35999628D-12  0.11087901D-02  0.10395612D-02  0.74022951D-03 -0.41098029D-11
 -0.38532015D-11 -0.27437090D-11 -0.13153296D-12  0.14400634D-03 -0.35902053D-11
 -0.50037018D-14  0.71697947D-04  0.87889961D-12  0.24737712D-14 -0.87386985D-05
  0.10063278D-12  0.24179696D-12 -0.29747428D-11  0.27329458D-11  0.80019343D-06
  0.16759568D-12  0.18420632D-03 -0.36823987D-12  0.74547335D-12 -0.37723348D-12
 -0.15055920D-05 -0.19191477D-13  0.74451353D-04 -0.51216761D-15 -0.50901926D-12
  0.50953143D-12  0.59043618D-06  0.91382244D-14  0.54664218D-04  0.13524024D-13
  0.25495670D-03 -0.57512223D-12 -0.15876932D-13  0.37152287D-04  0.72413384D-12
 -0.24695139D-13 -0.80202237D-03  0.10012328D-11 -0.12676086D-04 -0.67818420D-14
 -0.25893264D-03  0.29030941D-12  0.20742521D-13  0.27213593D-04 -0.40955537D-12
 -0.39699531D-15  0.74958434D-03 -0.46137286D-12  0.50605675D-05 -0.27094965D-03
 -0.50691789D-03 -0.87584167D-03 -0.14198423D-02 -0.21561667D-02 -0.29968689D-02
 -0.35630475D-02 -0.31740865D-02 -0.15763185D-02 -0.25377394D-03 -0.26774649D-05
 -0.15767131D-05 -0.52596509D-04 -0.18328830D-03 -0.66005086D-03 -0.14550000D-02
 -0.20481704D-02  0.97704402D-04  0.26803866D-02  0.15848958D-02  0.27578377D-06
  0.33404149D-05  0.69660831D-05  0.19977513D-04  0.10374045D-05 -0.86152727D-04
 -0.22260210D-03  0.18136571D-03  0.81681397D-04 -0.10094325D-03 -0.57173411D-04
  0.42437177D-01  0.55899690D-01  0.61666108D-01  0.51218531D-01  0.27198461D-01
  0.70173452D-02 -0.46638437D+01 -0.61433732D+01 -0.67771023D+01 -0.56289141D+01
 -0.29891096D+01 -0.77120590D+00  0.67688541D+01  0.89161643D+01  0.98359249D+01
  0.81695058D+01  0.43382343D+01  0.11192871D+01 -0.20624592D-05  0.19938529D-04
  0.28115407D-04  0.40212469D-04 -0.20363028D-06 -0.36878627D-04  0.23743546D-03
 -0.22953732D-02 -0.32367159D-02 -0.46293599D-02  0.23442427D-04  0.42455597D-02
 -0.33427290D-03  0.32315353D-02  0.45568021D-02  0.65174325D-02 -0.33003361D-04
 -0.59771003D-02  0.27296196D-03 -0.29933120D-01  0.43664621D-01 -0.27079427D-05
  0.34408278D-03 -0.55705102D-03 -0.72469942D-07  0.10941438D-04 -0.17205960D-04
 -0.14428160D-04 -0.74754816D-03  0.76197631D-03  0.72423134D-05  0.23735750D-05
  0.68709992D-03  0.58528711D-04  0.43212035D-03 -0.49064907D-03 -0.39364695D-05
 -0.19361082D-05 -0.35228250D-03  0.47703555D-05 -0.18181298D-05 -0.29522257D-05
  0.54050113D-08  0.23606506D-06 -0.48950671D-05  0.13992298D-06 -0.13859742D-04
 -0.26204277D-05  0.98051936D-06  0.18504260D-04  0.37013850D-04 -0.14002883D-05
  0.23074968D-04 -0.29152567D-04  0.11083414D-06  0.15368678D-06  0.75066774D-04
 -0.42091101D-04 -0.10997647D-05  0.11413269D-04  0.51385681D-04  0.63870438D-06
 -0.23661359D-03  0.74887622D-04 -0.12089840D-05  0.27094973D-03  0.50691803D-03
  0.87584192D-03  0.14198427D-02  0.21561673D-02  0.29968697D-02  0.35630485D-02
  0.31740874D-02  0.15763189D-02  0.25377401D-03  0.26774657D-05  0.15767133D-05
  0.52596516D-04  0.18328833D-03  0.66005095D-03  0.14550002D-02  0.20481706D-02
 -0.97704415D-04 -0.26803870D-02 -0.15848960D-02 -0.27578376D-06 -0.33404148D-05
 -0.69660830D-05 -0.19977513D-04 -0.10374044D-05  0.86152726D-04  0.22260210D-03
 -0.18136571D-03 -0.81681409D-04  0.10094325D-03  0.57173413D-04 -0.42437175D-01
 -0.55899686D-01 -0.61666104D-01 -0.51218528D-01 -0.27198460D-01 -0.70173448D-02
 -0.46638437D+01 -0.61433732D+01 -0.67771023D+01 -0.56289141D+01 -0.29891096D+01
 -0.77120589D+00 -0.67688540D+01 -0.89161642D+01 -0.98359248D+01 -0.81695057D+01
 -0.43382342D+01 -0.11192871D+01  0.20624591D-05 -0.19938528D-04 -0.28115406D-04
 -0.40212467D-04  0.20363027D-06  0.36878625D-04  0.23743546D-03 -0.22953732D-02
 -0.32367158D-02 -0.46293599D-02  0.23442427D-04  0.42455596D-02  0.33427290D-03
 -0.32315353D-02 -0.45568021D-02 -0.65174324D-02  0.33003360D-04  0.59771002D-02
 -0.27296194D-03 -0.29933119D-01 -0.43664621D-01  0.27079426D-05  0.34408278D-03
  0.55705102D-03  0.72469935D-07  0.10941438D-04  0.17205960D-04  0.14428160D-04
  0.74754815D-03 -0.76197631D-03  0.72423132D-05 -0.23735748D-05  0.68709992D-03
 -0.58528711D-04 -0.43212035D-03  0.49064906D-03 -0.39364694D-05  0.19361081D-05
 -0.35228249D-03 -0.47703555D-05  0.18181294D-05  0.29522261D-05  0.54050088D-08
 -0.23606506D-06 -0.48950673D-05 -0.13992298D-06 -0.13859743D-04  0.26204277D-05
 -0.98051937D-06  0.18504260D-04 -0.37013850D-04  0.14002883D-05  0.23074968D-04
  0.29152567D-04  0.11083412D-06 -0.15368677D-06  0.75066774D-04  0.42091101D-04
  0.10997647D-05  0.11413269D-04 -0.51385681D-04 -0.63870440D-06 -0.23661359D-03
 -0.74887622D-04 -0.12089840D-05
MO    2     MO 0.0        OCC NO =    2.0000377  ORB. ENERGY =    0.000000
  0.55198543D-02  0.10288101D-01  0.17444921D-01  0.26401032D-01  0.32933207D-01
  0.28261591D-01  0.10822688D-01  0.87482881D-06  0.93863390D-05  0.34599813D-04
  0.10116782D-03  0.12191215D-03 -0.14685610D-03  0.54196277D-03  0.20346621D-03
  0.29992914D-03  0.13319011D-04  0.12914960D-04  0.87123559D-05 -0.48032522D-11
 -0.46575389D-11 -0.31419482D-11  0.15917936D-02  0.15435044D-02  0.10412389D-02
  0.23530238D-05 -0.44873056D-11  0.58583079D-03 -0.16480939D-05 -0.36468054D-11
  0.49683195D-03 -0.34856472D-06 -0.10966047D-12  0.10501832D-04  0.13184123D-03
 -0.21761030D-03  0.85769075D-04 -0.45268983D-13 -0.56904689D-05 -0.11194031D-11
 -0.76416385D-04  0.24752196D-03 -0.17110557D-03  0.37571443D-13  0.51400147D-06
 -0.19138386D-12  0.58110900D-04  0.22137253D-04 -0.80248154D-04 -0.10684386D-13
 -0.14430850D-05  0.57964451D-12  0.40141033D-06 -0.69154070D-12  0.32911334D-04
 -0.29762260D-05  0.94586594D-12 -0.37504421D-04  0.17719950D-05  0.11287562D-11
 -0.61229581D-04 -0.54250362D-13 -0.31785525D-06 -0.28939919D-13  0.34722120D-04
 -0.12118902D-06 -0.88343956D-12  0.32394812D-04  0.10747548D-05  0.97025932D-12
 -0.13656117D-03  0.33429987D-13 -0.38868884D-02 -0.72459431D-02 -0.12246631D-01
 -0.18408970D-01 -0.22612123D-01 -0.19083834D-01 -0.71760200D-02 -0.41659252D-05
 -0.31137710D-04 -0.11636873D-03 -0.32465064D-03 -0.43494235D-03  0.51358582D-03
 -0.10468954D-03 -0.12341444D-04  0.85669902D-04  0.75140838D-05  0.70449312D-05
  0.50164107D-05  0.60880556D-11  0.57079391D-11  0.40643927D-11  0.97969130D-03
  0.91852287D-03  0.65404300D-03  0.63809122D-05  0.62398624D-12  0.82772938D-03
 -0.42802313D-06  0.33968647D-12 -0.20428544D-03 -0.63556789D-07 -0.26747885D-13
 -0.21910902D-04 -0.68433158D-04  0.68320602D-03 -0.61477286D-03  0.19565617D-12
 -0.71811715D-05  0.74473268D-12  0.82289265D-04 -0.16600068D-03  0.83711413D-04
 -0.14087215D-13  0.34638661D-05  0.70271036D-12 -0.13150192D-06  0.11551218D-03
 -0.11538068D-03  0.14193621D-13 -0.81160698D-06  0.28021967D-12 -0.53076711D-06
  0.11213447D-11  0.13660859D-03 -0.13924045D-05  0.17561882D-12 -0.17576421D-03
  0.29847058D-05 -0.35396530D-11 -0.23406156D-03 -0.11252426D-12  0.41498756D-06
 -0.11739661D-11 -0.68573290D-04 -0.12021749D-05  0.13485604D-12  0.94815148D-04
 -0.42787749D-07  0.33870421D-11  0.11090472D-03  0.80858269D-13 -0.14772354D-02
 -0.27637498D-02 -0.47751466D-02 -0.77410737D-02 -0.11755563D-01 -0.16339127D-01
 -0.19425970D-01 -0.17305329D-01 -0.85941923D-02 -0.13835922D-02 -0.14597715D-04
 -0.72287427D-05 -0.24113876D-03 -0.84032028D-03 -0.30261294D-02 -0.66707257D-02
 -0.93902288D-02  0.44794452D-03  0.12288745D-01  0.72662580D-02  0.91837943D-07
  0.11123818D-05  0.23197549D-05  0.66526532D-05  0.34546301D-06 -0.28689467D-04
 -0.74128072D-04  0.60396064D-04  0.32806537D-03 -0.19063849D-03 -0.16751634D-03
 -0.48538148D-01 -0.63936095D-01 -0.70531522D-01 -0.58581951D-01 -0.31108642D-01
 -0.80261921D-02  0.41038018D+01  0.54056670D+01  0.59632969D+01  0.49529850D+01
  0.26301725D+01  0.67859824D+00 -0.71178980D+01 -0.93759368D+01 -0.10343126D+02
 -0.85907759D+01 -0.45619404D+01 -0.11770045D+01  0.21917462D-05 -0.21188392D-04
 -0.29877844D-04 -0.42733221D-04  0.21639502D-06  0.39190394D-04 -0.17586328D-03
  0.17001330D-02  0.23973651D-02  0.34288662D-02 -0.17363296D-04 -0.31445937D-02
  0.33297571D-03 -0.32189949D-02 -0.45391189D-02 -0.64921407D-02  0.32875287D-04
  0.59539054D-02 -0.31244594D-03  0.26399520D-01 -0.46087048D-01  0.29849606D-05
 -0.16700260D-03  0.22042542D-03  0.11551880D-06 -0.11653495D-04  0.71503898D-05
  0.22331619D-04  0.42854962D-03 -0.45088124D-03 -0.58213280D-05 -0.30974559D-05
 -0.39944413D-03  0.47148237D-05 -0.27387445D-03  0.26915963D-03  0.35940845D-05
  0.16985337D-05  0.44937735D-03 -0.66074240D-06  0.38071721D-04 -0.37410979D-04
 -0.15397028D-06  0.22504067D-06 -0.16762470D-04  0.16010540D-06 -0.32805041D-04
  0.10027194D-04  0.31535770D-06  0.51265032D-04  0.52296592D-05 -0.79567391D-06
  0.47150092D-04 -0.35311240D-04 -0.78994219D-06 -0.33850930D-06 -0.48108950D-04
 -0.13485268D-04  0.54413313D-06  0.14147012D-04 -0.40029696D-04  0.47139476D-06
  0.13017984D-03  0.80485500D-04  0.14294366D-05 -0.14772354D-02 -0.27637498D-02
 -0.47751466D-02 -0.77410737D-02 -0.11755563D-01 -0.16339127D-01 -0.19425970D-01
 -0.17305329D-01 -0.85941923D-02 -0.13835923D-02 -0.14597716D-04 -0.72287428D-05
 -0.24113876D-03 -0.84032029D-03 -0.30261294D-02 -0.66707257D-02 -0.93902289D-02
  0.44794452D-03  0.12288745D-01  0.72662581D-02  0.91837938D-07  0.11123817D-05
  0.23197548D-05  0.66526528D-05  0.34546300D-06 -0.28689465D-04 -0.74128068D-04
  0.60396061D-04  0.32806537D-03 -0.19063849D-03 -0.16751634D-03 -0.48538151D-01
 -0.63936099D-01 -0.70531526D-01 -0.58581955D-01 -0.31108644D-01 -0.80261926D-02
 -0.41038018D+01 -0.54056670D+01 -0.59632969D+01 -0.49529850D+01 -0.26301725D+01
 -0.67859825D+00 -0.71178981D+01 -0.93759369D+01 -0.10343126D+02 -0.85907760D+01
 -0.45619404D+01 -0.11770045D+01  0.21917463D-05 -0.21188393D-04 -0.29877846D-04
 -0.42733224D-04  0.21639503D-06  0.39190396D-04  0.17586328D-03 -0.17001331D-02
 -0.23973651D-02 -0.34288663D-02  0.17363296D-04  0.31445938D-02  0.33297571D-03
 -0.32189949D-02 -0.45391189D-02 -0.64921408D-02  0.32875287D-04  0.59539054D-02
 -0.31244596D-03 -0.26399520D-01 -0.46087049D-01  0.29849607D-05  0.16700261D-03
  0.22042542D-03  0.11551881D-06  0.11653495D-04  0.71503899D-05  0.22331620D-04
  0.42854962D-03 -0.45088124D-03  0.58213284D-05 -0.30974561D-05  0.39944413D-03
  0.47148230D-05 -0.27387445D-03  0.26915963D-03 -0.35940847D-05  0.16985339D-05
 -0.44937735D-03 -0.66074243D-06  0.38071721D-04 -0.37410979D-04  0.15397029D-06
  0.22504066D-06  0.16762470D-04  0.16010540D-06  0.32805041D-04  0.10027194D-04
  0.31535768D-06 -0.51265032D-04  0.52296589D-05 -0.79567387D-06 -0.47150092D-04
 -0.35311240D-04  0.78994220D-06 -0.33850930D-06  0.48108951D-04 -0.13485267D-04
  0.54413317D-06 -0.14147011D-04 -0.40029697D-04  0.47139474D-06 -0.13017984D-03
  0.80485499D-04 -0.14294366D-05
MO    3     MO 0.0        OCC NO =    2.0000335  ORB. ENERGY =    0.000000
  0.25622381D-10  0.47755904D-10  0.80976847D-10  0.12254985D-09  0.15287127D-09
  0.13118630D-09  0.50237382D-10  0.29723285D-14  0.31891134D-13  0.11755672D-12
  0.34372897D-12  0.41421012D-12 -0.49895998D-12  0.23287663D-11 -0.75814311D-13
 -0.50619511D-13 -0.67080181D-11 -0.65045211D-11 -0.43879115D-11 -0.11206700D-04
 -0.10866729D-04 -0.73306312D-05 -0.10607558D-11 -0.10285764D-11 -0.69387153D-12
 -0.19079272D-11 -0.32174270D-05 -0.31867927D-13 -0.39419311D-12 -0.12387679D-04
 -0.89720841D-13  0.19562496D-13 -0.12327894D-05 -0.48476662D-14 -0.87742442D-13
  0.49956101D-13  0.37786341D-13  0.11508739D-03 -0.47103520D-12 -0.11929638D-04
  0.36387488D-13 -0.28455926D-13 -0.79315620D-14  0.33378455D-04  0.21400898D-12
  0.53575570D-05 -0.55688805D-14 -0.13557270D-13  0.19126151D-13 -0.15862761D-03
  0.33463914D-13  0.41417574D-05  0.79449719D-13  0.18220901D-05 -0.98303585D-14
 -0.43025241D-12 -0.13211218D-04  0.15765779D-13  0.19190325D-12  0.77449476D-05
  0.13725296D-13 -0.78114595D-03 -0.35402650D-13 -0.54125193D-06 -0.12422309D-13
  0.17811648D-12  0.44561169D-05 -0.15667186D-13 -0.71908527D-13 -0.28323611D-05
  0.52934113D-13  0.24295029D-03  0.15505960D-10  0.28906234D-10  0.48855473D-10
  0.73438888D-10  0.90206521D-10  0.76131121D-10  0.28627290D-10  0.33348409D-14
  0.24925869D-13  0.93153665D-13  0.25988422D-12  0.34817321D-12 -0.41112763D-12
  0.10748963D-11  0.12576640D-12 -0.30409854D-13  0.47696986D-11  0.44718956D-11
  0.31842561D-11  0.14913249D-04  0.13982118D-04  0.99561013D-05  0.17036579D-12
  0.15972876D-12  0.11373639D-12  0.10797515D-11  0.11735363D-05 -0.37256326D-13
  0.11831479D-12  0.87448027D-05 -0.11925407D-13 -0.20753834D-13  0.78596390D-06
  0.65393447D-14 -0.55539679D-13 -0.10856129D-12  0.16410097D-12  0.12034934D-02
 -0.13293108D-11 -0.10728794D-04 -0.63487175D-13  0.57902625D-13  0.55845497D-14
 -0.45886127D-04  0.10971248D-12  0.96947003D-05 -0.48810025D-14 -0.15712934D-13
  0.20593936D-13  0.72298013D-04 -0.56013149D-13  0.12531889D-05 -0.10751490D-12
 -0.69753920D-06 -0.13723612D-14  0.16792252D-12  0.55711667D-08 -0.17976957D-13
  0.15462217D-12  0.20870464D-05  0.22094040D-13 -0.35040715D-03  0.40290649D-13
 -0.75611401D-07  0.81896999D-14 -0.14672299D-12  0.43594595D-06 -0.11017811D-13
  0.25851043D-13 -0.20911175D-06 -0.13551289D-13  0.35487441D-03  0.91102585D-04
  0.17044321D-03  0.29448807D-03  0.47739976D-03  0.72497735D-03  0.10076503D-02
  0.11980190D-02  0.10672370D-02  0.53001244D-03  0.85327519D-04  0.90025573D-06
  0.42635146D-06  0.14222371D-04  0.49562115D-04  0.17848120D-03  0.39343960D-03
  0.55383597D-03 -0.26419781D-04 -0.72479055D-03 -0.42856412D-03  0.81733030D-08
  0.98998659D-07  0.20645127D-06  0.59206629D-06  0.30745178D-07 -0.25532770D-05
 -0.65971773D-05  0.53750696D-05 -0.24402698D-04  0.11561509D-05  0.36508581D-05
  0.82140562D+01  0.10819834D+02  0.11935970D+02  0.99137577D+01  0.52644804D+01
  0.13582635D+01  0.43272573D-01  0.57000101D-01  0.62880034D-01  0.52226792D-01
  0.27733876D-01  0.71554849D-02 -0.21670757D-01 -0.28545456D-01 -0.31490107D-01
 -0.26154999D-01 -0.13889030D-01 -0.35834424D-02 -0.35886225D-03  0.34692494D-02
  0.48920037D-02  0.69968594D-02 -0.35431111D-04 -0.64167800D-02 -0.20466294D-05
  0.19785496D-04  0.27899614D-04  0.39903829D-04 -0.20206737D-06 -0.36595575D-04
  0.80034651D-06 -0.77372351D-05 -0.10910309D-04 -0.15604628D-04  0.79019641D-07
  0.14310916D-04  0.53687726D-01  0.28723628D-03 -0.13752336D-03 -0.42409720D-03
 -0.15985690D-05  0.39498592D-05 -0.15167155D-04 -0.14875812D-06  0.20584356D-06
 -0.14512987D-05  0.40482505D-05 -0.25969518D-05  0.90727981D-03  0.51079281D-03
 -0.26250981D-05  0.10617070D-05 -0.24121226D-05  0.13504156D-05 -0.47178866D-03
 -0.31785836D-03 -0.22851685D-05 -0.74433355D-07 -0.18733272D-06  0.26176608D-06
  0.21552410D-04  0.36876253D-04  0.32978252D-06  0.22740844D-04  0.62646730D-06
  0.18092884D-06  0.41984695D-04 -0.85109881D-06 -0.55143673D-06 -0.11020723D-03
 -0.10283031D-05  0.86502222D-08  0.96271078D-05  0.17573770D-04 -0.46492712D-06
  0.28395140D-06 -0.90600032D-04  0.84840471D-06  0.46458244D-06  0.37878722D-04
  0.54637664D-06 -0.13164366D-05 -0.14742187D-03 -0.91102574D-04 -0.17044319D-03
 -0.29448803D-03 -0.47739970D-03 -0.72497726D-03 -0.10076502D-02 -0.11980189D-02
 -0.10672368D-02 -0.53001238D-03 -0.85327509D-04 -0.90025562D-06 -0.42635133D-06
 -0.14222367D-04 -0.49562101D-04 -0.17848115D-03 -0.39343948D-03 -0.55383581D-03
  0.26419773D-04  0.72479033D-03  0.42856399D-03 -0.81732996D-08 -0.98998617D-07
 -0.20645118D-06 -0.59206604D-06 -0.30745165D-07  0.25532759D-05  0.65971746D-05
 -0.53750673D-05  0.24402690D-04 -0.11561508D-05 -0.36508580D-05 -0.82140562D+01
 -0.10819834D+02 -0.11935970D+02 -0.99137577D+01 -0.52644804D+01 -0.13582635D+01
  0.43272572D-01  0.57000100D-01  0.62880033D-01  0.52226791D-01  0.27733875D-01
  0.71554848D-02  0.21670761D-01  0.28545461D-01  0.31490112D-01  0.26155004D-01
  0.13889033D-01  0.35834430D-02  0.35886225D-03 -0.34692494D-02 -0.48920037D-02
 -0.69968595D-02  0.35431111D-04  0.64167800D-02 -0.20466294D-05  0.19785496D-04
  0.27899614D-04  0.39903829D-04 -0.20206737D-06 -0.36595575D-04 -0.80034666D-06
  0.77372365D-05  0.10910311D-04  0.15604631D-04 -0.79019656D-07 -0.14310919D-04
 -0.53687726D-01  0.28723628D-03  0.13752339D-03  0.42409720D-03 -0.15985690D-05
 -0.39498593D-05  0.15167155D-04 -0.14875813D-06 -0.20584357D-06  0.14512987D-05
 -0.40482506D-05  0.25969520D-05  0.90727981D-03 -0.51079281D-03 -0.26250983D-05
 -0.10617070D-05  0.24121226D-05 -0.13504157D-05 -0.47178866D-03  0.31785836D-03
 -0.22851682D-05  0.74433357D-07  0.18733271D-06 -0.26176606D-06  0.21552410D-04
 -0.36876253D-04  0.32978251D-06 -0.22740844D-04  0.62646730D-06 -0.18092884D-06
 -0.41984695D-04 -0.85109883D-06  0.55143672D-06  0.11020723D-03 -0.10283031D-05
 -0.86502074D-08  0.96271078D-05 -0.17573770D-04 -0.46492713D-06 -0.28395139D-06
  0.90600032D-04  0.84840470D-06 -0.46458241D-06 -0.37878722D-04  0.54637668D-06
  0.13164366D-05 -0.14742187D-03
MO    4     MO 0.0        OCC NO =    2.0000300  ORB. ENERGY =    0.000000
  0.90255596D-04  0.16822159D-03  0.28524335D-03  0.43168547D-03  0.53849360D-03
  0.46210763D-03  0.17696267D-03  0.51732507D-07  0.55505586D-06  0.20460404D-05
  0.59825021D-05  0.72092059D-05 -0.86842525D-05  0.62894761D-05 -0.22295162D-05
  0.11173909D-06 -0.52013669D-02 -0.50435762D-02 -0.34023667D-02  0.12656133D-13
  0.12272192D-13  0.82787481D-14  0.49201974D-04  0.47709364D-04  0.32184455D-04
 -0.14814139D-02 -0.93368566D-13  0.16319904D-04 -0.31071243D-03 -0.89711777D-13
  0.25531501D-05  0.14431192D-04 -0.47224795D-15 -0.90804608D-07 -0.27936288D-06
 -0.26961126D-05  0.29754755D-05 -0.13256839D-12 -0.38615367D-03 -0.41195032D-13
 -0.22662420D-06  0.11602257D-05 -0.93360148D-06 -0.41075208D-13  0.17473192D-03
  0.52597888D-14 -0.66167394D-06  0.18569308D-05 -0.11952569D-05  0.19989802D-12
  0.27513951D-04  0.15875724D-13  0.63042153D-04 -0.21903283D-13 -0.38256394D-05
 -0.33276399D-03  0.47295567D-13 -0.51032267D-06  0.14363753D-03  0.18414282D-13
  0.11987241D-04  0.98245619D-12 -0.26671569D-04  0.14034052D-14  0.15624038D-05
  0.13873490D-03 -0.29070628D-13  0.81993351D-06 -0.58720193D-04  0.24860412D-13
 -0.55071449D-05 -0.30360947D-12 -0.22347932D-03 -0.41661048D-03 -0.70412847D-03
 -0.10584364D-02 -0.13000996D-02 -0.10972382D-02 -0.41259020D-03 -0.55744855D-07
 -0.41665826D-06 -0.15571470D-05 -0.43441978D-05 -0.58200273D-05  0.68723671D-05
 -0.15130603D-04 -0.33303906D-06 -0.17208925D-05  0.37016563D-02  0.34705381D-02
  0.24712299D-02 -0.65632771D-14 -0.61534895D-14 -0.43816511D-14 -0.37052223D-04
 -0.34738814D-04 -0.24736105D-04  0.84379203D-03  0.23756788D-13 -0.50766408D-05
  0.87902690D-04  0.38777474D-14 -0.48530087D-05 -0.15972596D-04 -0.32430568D-14
  0.12244894D-06 -0.88891671D-06 -0.21110036D-05  0.29999203D-05 -0.15508168D-11
 -0.10321571D-02  0.35740463D-13  0.99245307D-06 -0.24466194D-05  0.14541663D-05
  0.62169521D-13  0.91074746D-04  0.24669766D-14  0.54677881D-07 -0.14627129D-05
  0.14080350D-05 -0.90587971D-13 -0.41651834D-04  0.43155205D-14 -0.86535983D-04
  0.29752001D-13 -0.13083857D-05  0.13300362D-03  0.11405727D-13  0.23508993D-05