 cl2co-wavefunction
GAUSSIAN            192 MOL ORBITALS    372 PRIMITIVES        4 NUCLEI
  O    1    (CENTRE  1)   0.00000000 -0.01889726  1.29143317  CHARGE =  8.0
  C    2    (CENTRE  2)   0.00000000  0.00000000 -0.93482295  CHARGE =  6.0
  Cl   3    (CENTRE  3)   0.00000000 -2.73418805 -2.77752892  CHARGE = 17.0
  Cl   4    (CENTRE  4)   0.00000000  2.73418805 -2.77752892  CHARGE = 17.0
CENTRE ASSIGNMENTS    1  1  1  1  1  1  1  1  1  1  1  1  1  1  1  1  1  1  1  1
CENTRE ASSIGNMENTS    1  1  1  1  1  1  1  1  1  1  1  1  1  1  1  1  1  1  1  1
CENTRE ASSIGNMENTS    1  1  1  1  1  1  1  1  1  1  1  1  1  1  1  1  1  1  1  1
CENTRE ASSIGNMENTS    1  1  1  1  1  1  1  1  1  1  1  1  2  2  2  2  2  2  2  2
CENTRE ASSIGNMENTS    2  2  2  2  2  2  2  2  2  2  2  2  2  2  2  2  2  2  2  2
CENTRE ASSIGNMENTS    2  2  2  2  2  2  2  2  2  2  2  2  2  2  2  2  2  2  2  2
CENTRE ASSIGNMENTS    2  2  2  2  2  2  2  2  2  2  2  2  2  2  2  2  2  2  2  2
CENTRE ASSIGNMENTS    2  2  2  2  3  3  3  3  3  3  3  3  3  3  3  3  3  3  3  3
CENTRE ASSIGNMENTS    3  3  3  3  3  3  3  3  3  3  3  3  3  3  3  3  3  3  3  3
CENTRE ASSIGNMENTS    3  3  3  3  3  3  3  3  3  3  3  3  3  3  3  3  3  3  3  3
CENTRE ASSIGNMENTS    3  3  3  3  3  3  3  3  3  3  3  3  3  3  3  3  3  3  3  3
CENTRE ASSIGNMENTS    3  3  3  3  3  3  3  3  3  3  3  3  3  3  3  3  3  3  3  3
CENTRE ASSIGNMENTS    3  3  3  3  3  3  3  3  3  3  3  3  3  3  3  3  3  3  4  4
CENTRE ASSIGNMENTS    4  4  4  4  4  4  4  4  4  4  4  4  4  4  4  4  4  4  4  4
CENTRE ASSIGNMENTS    4  4  4  4  4  4  4  4  4  4  4  4  4  4  4  4  4  4  4  4
CENTRE ASSIGNMENTS    4  4  4  4  4  4  4  4  4  4  4  4  4  4  4  4  4  4  4  4
CENTRE ASSIGNMENTS    4  4  4  4  4  4  4  4  4  4  4  4  4  4  4  4  4  4  4  4
CENTRE ASSIGNMENTS    4  4  4  4  4  4  4  4  4  4  4  4  4  4  4  4  4  4  4  4
CENTRE ASSIGNMENTS    4  4  4  4  4  4  4  4  4  4  4  4
TYPE ASSIGNMENTS      1  1  1  1  1  1  1  1  1  1  1  1  1  1  1  1  2  2  2  3
TYPE ASSIGNMENTS      3  3  4  4  4  2  3  4  2  3  4  2  3  4  5  6  7  8  9 10
TYPE ASSIGNMENTS      5  6  7  8  9 10  5  6  7  8  9 10 11 12 13 17 14 15 18 19
TYPE ASSIGNMENTS     16 20 11 12 13 17 14 15 18 19 16 20  1  1  1  1  1  1  1  1
TYPE ASSIGNMENTS      1  1  1  1  1  1  1  1  2  2  2  3  3  3  4  4  4  2  3  4
TYPE ASSIGNMENTS      2  3  4  2  3  4  5  6  7  8  9 10  5  6  7  8  9 10  5  6
TYPE ASSIGNMENTS      7  8  9 10 11 12 13 17 14 15 18 19 16 20 11 12 13 17 14 15
TYPE ASSIGNMENTS     18 19 16 20  1  1  1  1  1  1  1  1  1  1  1  1  1  1  1  1
TYPE ASSIGNMENTS      1  1  1  1  1  1  1  1  1  1  1  1  1  1  1  2  2  2  2  2
TYPE ASSIGNMENTS      2  3  3  3  3  3  3  4  4  4  4  4  4  2  2  2  2  2  2  3
TYPE ASSIGNMENTS      3  3  3  3  3  4  4  4  4  4  4  2  3  4  2  3  4  2  3  4
TYPE ASSIGNMENTS      5  6  7  8  9 10  5  6  7  8  9 10  5  6  7  8  9 10 11 12
TYPE ASSIGNMENTS     13 17 14 15 18 19 16 20 11 12 13 17 14 15 18 19 16 20  1  1
TYPE ASSIGNMENTS      1  1  1  1  1  1  1  1  1  1  1  1  1  1  1  1  1  1  1  1
TYPE ASSIGNMENTS      1  1  1  1  1  1  1  1  1  2  2  2  2  2  2  3  3  3  3  3
TYPE ASSIGNMENTS      3  4  4  4  4  4  4  2  2  2  2  2  2  3  3  3  3  3  3  4
TYPE ASSIGNMENTS      4  4  4  4  4  2  3  4  2  3  4  2  3  4  5  6  7  8  9 10
TYPE ASSIGNMENTS      5  6  7  8  9 10  5  6  7  8  9 10 11 12 13 17 14 15 18 19
TYPE ASSIGNMENTS     16 20 11 12 13 17 14 15 18 19 16 20
EXPONENTS  0.1533000D+05 0.2299000D+04 0.5224000D+03 0.1473000D+03 0.4755000D+02
EXPONENTS  0.1676000D+02 0.6207000D+01 0.5224000D+03 0.1473000D+03 0.4755000D+02
EXPONENTS  0.1676000D+02 0.6207000D+01 0.6882000D+00 0.1752000D+01 0.2384000D+00
EXPONENTS  0.7376000D-01 0.3446000D+02 0.7749000D+01 0.2280000D+01 0.3446000D+02
EXPONENTS  0.7749000D+01 0.2280000D+01 0.3446000D+02 0.7749000D+01 0.2280000D+01
EXPONENTS  0.7156000D+00 0.7156000D+00 0.7156000D+00 0.2140000D+00 0.2140000D+00
EXPONENTS  0.2140000D+00 0.5974000D-01 0.5974000D-01 0.5974000D-01 0.2314000D+01
EXPONENTS  0.2314000D+01 0.2314000D+01 0.2314000D+01 0.2314000D+01 0.2314000D+01
EXPONENTS  0.6450000D+00 0.6450000D+00 0.6450000D+00 0.6450000D+00 0.6450000D+00
EXPONENTS  0.6450000D+00 0.2140000D+00 0.2140000D+00 0.2140000D+00 0.2140000D+00
EXPONENTS  0.2140000D+00 0.2140000D+00 0.1428000D+01 0.1428000D+01 0.1428000D+01
EXPONENTS  0.1428000D+01 0.1428000D+01 0.1428000D+01 0.1428000D+01 0.1428000D+01
EXPONENTS  0.1428000D+01 0.1428000D+01 0.5000000D+00 0.5000000D+00 0.5000000D+00
EXPONENTS  0.5000000D+00 0.5000000D+00 0.5000000D+00 0.5000000D+00 0.5000000D+00
EXPONENTS  0.5000000D+00 0.5000000D+00 0.8236000D+04 0.1235000D+04 0.2808000D+03
EXPONENTS  0.7927000D+02 0.2559000D+02 0.8997000D+01 0.3319000D+01 0.2808000D+03
EXPONENTS  0.7927000D+02 0.2559000D+02 0.8997000D+01 0.3319000D+01 0.3643000D+00
EXPONENTS  0.9059000D+00 0.1285000D+00 0.4402000D-01 0.1871000D+02 0.4133000D+01
EXPONENTS  0.1200000D+01 0.1871000D+02 0.4133000D+01 0.1200000D+01 0.1871000D+02
EXPONENTS  0.4133000D+01 0.1200000D+01 0.3827000D+00 0.3827000D+00 0.3827000D+00
EXPONENTS  0.1209000D+00 0.1209000D+00 0.1209000D+00 0.3569000D-01 0.3569000D-01
EXPONENTS  0.3569000D-01 0.1097000D+01 0.1097000D+01 0.1097000D+01 0.1097000D+01
EXPONENTS  0.1097000D+01 0.1097000D+01 0.3180000D+00 0.3180000D+00 0.3180000D+00
EXPONENTS  0.3180000D+00 0.3180000D+00 0.3180000D+00 0.1000000D+00 0.1000000D+00
EXPONENTS  0.1000000D+00 0.1000000D+00 0.1000000D+00 0.1000000D+00 0.7610000D+00
EXPONENTS  0.7610000D+00 0.7610000D+00 0.7610000D+00 0.7610000D+00 0.7610000D+00
EXPONENTS  0.7610000D+00 0.7610000D+00 0.7610000D+00 0.7610000D+00 0.2680000D+00
EXPONENTS  0.2680000D+00 0.2680000D+00 0.2680000D+00 0.2680000D+00 0.2680000D+00
EXPONENTS  0.2680000D+00 0.2680000D+00 0.2680000D+00 0.2680000D+00 0.4561000D+06
EXPONENTS  0.6833000D+05 0.1555000D+05 0.4405000D+04 0.1439000D+04 0.5204000D+03
EXPONENTS  0.2031000D+03 0.8396000D+02 0.3620000D+02 0.1583000D+02 0.6334000D+01
EXPONENTS  0.4405000D+04 0.1439000D+04 0.5204000D+03 0.2031000D+03 0.8396000D+02
EXPONENTS  0.3620000D+02 0.1583000D+02 0.6334000D+01 0.2694000D+01 0.1439000D+04
EXPONENTS  0.2031000D+03 0.8396000D+02 0.3620000D+02 0.1583000D+02 0.6334000D+01
EXPONENTS  0.2694000D+01 0.4313000D+00 0.9768000D+00 0.1625000D+00 0.5910000D-01
EXPONENTS  0.6633000D+03 0.1568000D+03 0.4998000D+02 0.1842000D+02 0.7240000D+01
EXPONENTS  0.2922000D+01 0.6633000D+03 0.1568000D+03 0.4998000D+02 0.1842000D+02
EXPONENTS  0.7240000D+01 0.2922000D+01 0.6633000D+03 0.1568000D+03 0.4998000D+02
EXPONENTS  0.1842000D+02 0.7240000D+01 0.2922000D+01 0.1568000D+03 0.4998000D+02
EXPONENTS  0.1842000D+02 0.7240000D+01 0.2922000D+01 0.3818000D+00 0.1568000D+03
EXPONENTS  0.4998000D+02 0.1842000D+02 0.7240000D+01 0.2922000D+01 0.3818000D+00
EXPONENTS  0.1568000D+03 0.4998000D+02 0.1842000D+02 0.7240000D+01 0.2922000D+01
EXPONENTS  0.3818000D+00 0.1022000D+01 0.1022000D+01 0.1022000D+01 0.1301000D+00
EXPONENTS  0.1301000D+00 0.1301000D+00 0.4190000D-01 0.4190000D-01 0.4190000D-01
EXPONENTS  0.1046000D+01 0.1046000D+01 0.1046000D+01 0.1046000D+01 0.1046000D+01
EXPONENTS  0.1046000D+01 0.3440000D+00 0.3440000D+00 0.3440000D+00 0.3440000D+00
EXPONENTS  0.3440000D+00 0.3440000D+00 0.1350000D+00 0.1350000D+00 0.1350000D+00
EXPONENTS  0.1350000D+00 0.1350000D+00 0.1350000D+00 0.7060000D+00 0.7060000D+00
EXPONENTS  0.7060000D+00 0.7060000D+00 0.7060000D+00 0.7060000D+00 0.7060000D+00
EXPONENTS  0.7060000D+00 0.7060000D+00 0.7060000D+00 0.3120000D+00 0.3120000D+00
EXPONENTS  0.3120000D+00 0.3120000D+00 0.3120000D+00 0.3120000D+00 0.3120000D+00
EXPONENTS  0.3120000D+00 0.3120000D+00 0.3120000D+00 0.4561000D+06 0.6833000D+05
EXPONENTS  0.1555000D+05 0.4405000D+04 0.1439000D+04 0.5204000D+03 0.2031000D+03
EXPONENTS  0.8396000D+02 0.3620000D+02 0.1583000D+02 0.6334000D+01 0.4405000D+04
EXPONENTS  0.1439000D+04 0.5204000D+03 0.2031000D+03 0.8396000D+02 0.3620000D+02
EXPONENTS  0.1583000D+02 0.6334000D+01 0.2694000D+01 0.1439000D+04 0.2031000D+03
EXPONENTS  0.8396000D+02 0.3620000D+02 0.1583000D+02 0.6334000D+01 0.2694000D+01
EXPONENTS  0.4313000D+00 0.9768000D+00 0.1625000D+00 0.5910000D-01 0.6633000D+03
EXPONENTS  0.1568000D+03 0.4998000D+02 0.1842000D+02 0.7240000D+01 0.2922000D+01
EXPONENTS  0.6633000D+03 0.1568000D+03 0.4998000D+02 0.1842000D+02 0.7240000D+01
EXPONENTS  0.2922000D+01 0.6633000D+03 0.1568000D+03 0.4998000D+02 0.1842000D+02
EXPONENTS  0.7240000D+01 0.2922000D+01 0.1568000D+03 0.4998000D+02 0.1842000D+02
EXPONENTS  0.7240000D+01 0.2922000D+01 0.3818000D+00 0.1568000D+03 0.4998000D+02
EXPONENTS  0.1842000D+02 0.7240000D+01 0.2922000D+01 0.3818000D+00 0.1568000D+03
EXPONENTS  0.4998000D+02 0.1842000D+02 0.7240000D+01 0.2922000D+01 0.3818000D+00
EXPONENTS  0.1022000D+01 0.1022000D+01 0.1022000D+01 0.1301000D+00 0.1301000D+00
EXPONENTS  0.1301000D+00 0.4190000D-01 0.4190000D-01 0.4190000D-01 0.1046000D+01
EXPONENTS  0.1046000D+01 0.1046000D+01 0.1046000D+01 0.1046000D+01 0.1046000D+01
EXPONENTS  0.3440000D+00 0.3440000D+00 0.3440000D+00 0.3440000D+00 0.3440000D+00
EXPONENTS  0.3440000D+00 0.1350000D+00 0.1350000D+00 0.1350000D+00 0.1350000D+00
EXPONENTS  0.1350000D+00 0.1350000D+00 0.7060000D+00 0.7060000D+00 0.7060000D+00
EXPONENTS  0.7060000D+00 0.7060000D+00 0.7060000D+00 0.7060000D+00 0.7060000D+00
EXPONENTS  0.7060000D+00 0.7060000D+00 0.3120000D+00 0.3120000D+00 0.3120000D+00
EXPONENTS  0.3120000D+00 0.3120000D+00 0.3120000D+00 0.3120000D+00 0.3120000D+00
EXPONENTS  0.3120000D+00 0.3120000D+00
MO    1     MO 0.0        OCC NO =    2.0000387  ORB. ENERGY =    0.000000
  0.96013791D-04  0.17895392D-03  0.30344152D-03  0.45922647D-03  0.57284882D-03
  0.49158952D-03  0.18825267D-03  0.10096633D-06  0.10833024D-05  0.39932567D-05
  0.11676048D-04  0.14070206D-04 -0.16949054D-04  0.56542276D-05 -0.99847928D-05
  0.11307680D-05  0.52762702D-12  0.51162072D-12  0.34513632D-12  0.87625788D-03
  0.84967538D-03  0.57318599D-03  0.29926550D-04  0.29018686D-04  0.19575834D-04
  0.14797581D-12  0.94134344D-03  0.81810909D-05  0.23596688D-13  0.75990652D-03
  0.78805776D-05 -0.19993989D-14  0.19860767D-04  0.43190037D-06  0.91731942D-05
 -0.19879529D-04  0.10706335D-04  0.42461857D-14  0.33378273D-13  0.20037889D-03
 -0.96466376D-05  0.10429744D-04 -0.78310591D-06  0.30534108D-14 -0.10058536D-13
  0.70782292D-04 -0.14613443D-05  0.42068568D-05 -0.27455125D-05 -0.10690488D-13
  0.11011298D-14 -0.11215106D-03 -0.67240411D-14  0.14707611D-03 -0.97348495D-05
  0.26122556D-13 -0.22200451D-03  0.58732324D-05 -0.59504329D-14 -0.21922381D-03
  0.23331316D-04 -0.58813640D-13  0.39738534D-14  0.10327270D-04  0.20019444D-05
 -0.12650452D-13  0.20027099D-03  0.27454997D-05  0.72889214D-15 -0.23125280D-03
 -0.87513330D-05  0.16779862D-13 -0.67601614D-04 -0.12602303D-03 -0.21299609D-03
 -0.32017284D-03 -0.39327499D-03 -0.33191022D-03 -0.12480691D-03 -0.53759139D-07
 -0.40181625D-06 -0.15016791D-05 -0.41894508D-05 -0.56127091D-05  0.66275629D-05
  0.21532839D-05 -0.32517198D-05 -0.35994439D-06 -0.37596461D-12 -0.35249072D-12
 -0.25099439D-12 -0.11087732D-02 -0.10395453D-02 -0.74021820D-03 -0.84367794D-05
 -0.79100170D-05 -0.56324033D-05 -0.75563471D-13 -0.14417432D-03  0.21710365D-06
 -0.48290776D-14 -0.71676974D-04  0.34390793D-05  0.18041704D-14  0.87342921D-05
 -0.22749385D-06  0.15737964D-05  0.66134317D-05 -0.81872281D-05  0.77002715D-13
  0.10542328D-12 -0.18427763D-03  0.22125611D-05 -0.37771117D-05  0.15645505D-05
 -0.15671125D-14 -0.16155841D-14 -0.74508435D-04  0.14730070D-06  0.63045451D-06
 -0.77775521D-06  0.52011448D-14  0.46188614D-14 -0.54671606D-04  0.75917725D-14
 -0.25490805D-03  0.19028897D-05 -0.14830568D-13 -0.37182471D-04  0.40799762D-05
 -0.79447494D-14  0.80190663D-03 -0.97886453D-05 -0.20204712D-13 -0.36196998D-14
  0.25892981D-03 -0.70447635D-06  0.11692173D-13 -0.27244211D-04  0.77994089D-06
 -0.83307358D-15 -0.74954521D-03  0.13334881D-05  0.22716878D-13  0.34044955D-03
  0.63694478D-03  0.11004993D-02  0.17840387D-02  0.27092339D-02  0.37655802D-02
  0.44769864D-02  0.39882550D-02  0.19806518D-02  0.31886818D-03  0.33642477D-05
  0.19023848D-05  0.63460373D-04  0.22114669D-03  0.79638505D-03  0.17555317D-02
  0.24712221D-02 -0.11788535D-03 -0.32340233D-02 -0.19122577D-02 -0.26823167D-06
 -0.32489406D-05 -0.67753231D-05 -0.19430447D-04 -0.10089961D-05  0.83793511D-04
  0.21650634D-03 -0.17639917D-03 -0.10269982D-03  0.10618531D-03  0.56934394D-04
  0.13711333D-08  0.18061033D-08  0.19924146D-08  0.16548564D-08  0.87877465D-09
  0.22672845D-09  0.46877528D+01  0.61748671D+01  0.68118450D+01  0.56577706D+01
  0.30044332D+01  0.77515947D+00 -0.68367715D+01 -0.90056275D+01 -0.99346168D+01
 -0.82514771D+01 -0.43817633D+01 -0.11305178D+01 -0.56022897D-13  0.54159332D-12
  0.76370312D-12  0.10922975D-11 -0.55312407D-14 -0.10017398D-11 -0.23843024D-03
  0.23049902D-02  0.32502767D-02  0.46487556D-02 -0.23540644D-04 -0.42633473D-02
  0.33752730D-03 -0.32629968D-02 -0.46011661D-02 -0.65808847D-02  0.33324674D-04
  0.60352919D-02  0.90399259D-11  0.30086152D-01 -0.44106500D-01 -0.64689636D-13
 -0.34385671D-03  0.56098129D-03 -0.32677590D-14 -0.11047859D-04  0.17389693D-04
  0.14844927D-04  0.75069916D-03 -0.76554408D-03  0.10438084D-12  0.80736162D-13
 -0.69337275D-03 -0.58875420D-04 -0.43404026D-03  0.49291568D-03 -0.73722486D-13
 -0.47691729D-13  0.35819668D-03 -0.47939451D-05  0.21711841D-05  0.26227610D-05
  0.22745419D-14  0.19919832D-14  0.49304310D-05  0.92854535D-15  0.13450858D-04
  0.30646643D-05 -0.11683203D-14 -0.18359429D-04 -0.37407581D-04 -0.16173158D-14
 -0.21993146D-04  0.28213588D-04  0.40909231D-14  0.45246327D-14 -0.75548541D-04
  0.41854574D-04 -0.11878575D-13 -0.11173917D-04 -0.51687026D-04 -0.16953228D-14
  0.23781954D-03 -0.73876696D-04 -0.23315602D-13 -0.20390723D-03 -0.38148867D-03
 -0.65912781D-03 -0.10685236D-02 -0.16226557D-02 -0.22553387D-02 -0.26814249D-02
 -0.23887065D-02 -0.11862822D-02 -0.19098139D-03 -0.20149665D-05 -0.12624437D-05
 -0.42113009D-04 -0.14675541D-03 -0.52848998D-03 -0.11649904D-02 -0.16399305D-02
  0.78230028D-04  0.21461338D-02  0.12689955D-02  0.28287976D-06  0.34263647D-05
  0.71453224D-05  0.20491541D-04  0.10640972D-05 -0.88369462D-04 -0.22832972D-03
  0.18603231D-03  0.61412688D-04 -0.95809760D-04 -0.57382696D-04  0.28528513D-09
  0.37578726D-09  0.41455217D-09  0.34431804D-09  0.18284243D-09  0.47174303D-10
  0.46394282D+01  0.61112122D+01  0.67416237D+01  0.55994463D+01  0.29734614D+01
  0.76716858D+00  0.67007778D+01  0.88264920D+01  0.97370023D+01  0.80873428D+01
  0.42946034D+01  0.11080301D+01 -0.87513978D-14  0.84602883D-13  0.11929890D-12
  0.17062898D-12 -0.86404114D-15 -0.15648287D-12 -0.23641215D-03  0.22854806D-02
  0.32227662D-02  0.46094082D-02 -0.23341394D-04 -0.42272621D-02 -0.33101488D-03
  0.32000389D-02  0.45123889D-02  0.64539098D-02 -0.32681691D-04 -0.59188440D-02
  0.19370016D-11  0.29776825D-01  0.43221730D-01 -0.10734946D-13 -0.34428946D-03
 -0.55309277D-03 -0.13260623D-14 -0.10832952D-04 -0.17022337D-04 -0.14016560D-04
 -0.74435732D-03  0.75837388D-03  0.13771879D-13  0.11973367D-13 -0.68082688D-03
  0.58186357D-04  0.43016398D-03 -0.48835034D-03  0.11886466D-13 -0.53449887D-14
  0.34633459D-03  0.47394951D-05 -0.14650344D-05 -0.32744607D-05  0.12262964D-14
 -0.35080043D-14  0.48455138D-05 -0.24440628D-14  0.14260199D-04 -0.21987533D-05
 -0.56859972D-14 -0.18649015D-04  0.36667955D-04  0.13018186D-13 -0.24131581D-04
 -0.30071695D-04 -0.49596930D-14  0.24335639D-14 -0.74574179D-04 -0.42320184D-04
 -0.31915028D-15 -0.11651254D-04  0.51062873D-04 -0.69815413D-14  0.23537379D-03
  0.75897678D-04  0.48477291D-14
MO    2     MO 0.0        OCC NO =    2.0000377  ORB. ENERGY =    0.000000
  0.55193863D-02  0.10287229D-01  0.17443442D-01  0.26398794D-01  0.32930415D-01
  0.28259195D-01  0.10821771D-01  0.87290166D-06  0.93656620D-05  0.34523593D-04
  0.10094496D-03  0.12164359D-03 -0.14653259D-03  0.54193577D-03  0.20357923D-03
  0.29994033D-03  0.61329397D-12  0.59468885D-12  0.40117358D-12 -0.15903682D-04
 -0.15421222D-04 -0.10403065D-04  0.15915797D-02  0.15432969D-02  0.10410990D-02
  0.17393441D-12 -0.22091432D-04  0.58557189D-03  0.20938325D-13 -0.33227675D-05
  0.49682920D-03 -0.27364094D-14  0.84055872D-06  0.10504257D-04  0.13167078D-03
 -0.21735729D-03  0.85686502D-04 -0.20977715D-13  0.21162418D-13  0.65990040D-06
 -0.76304262D-04  0.24733707D-03 -0.17103281D-03 -0.12833140D-14 -0.32256634D-14
  0.12271738D-04  0.58130754D-04  0.22101918D-04 -0.80232672D-04  0.11333797D-13
  0.37323260D-14  0.20206579D-05 -0.82467978D-14  0.14355577D-05  0.33019256D-04
  0.41410417D-13  0.88229549D-05 -0.37539199D-04 -0.16670023D-13 -0.13129628D-04
 -0.61518569D-04  0.41541854D-13  0.57719334D-14  0.74965367D-06  0.34683191D-04
 -0.13820921D-13 -0.28684525D-05  0.32310498D-04 -0.34948792D-14  0.61949144D-06
 -0.13636007D-03 -0.15314664D-13 -0.38858843D-02 -0.72440711D-02 -0.12243467D-01
 -0.18404215D-01 -0.22606281D-01 -0.19078904D-01 -0.71741661D-02 -0.41656156D-05
 -0.31135396D-04 -0.11636008D-03 -0.32462651D-03 -0.43491003D-03  0.51354765D-03
 -0.10468237D-03 -0.12322122D-04  0.85678168D-04 -0.45133367D-12 -0.42315400D-12
 -0.30131086D-12 -0.19296449D-05 -0.18091647D-05 -0.12882331D-05  0.97978544D-03
  0.91861113D-03  0.65410585D-03 -0.84749276D-13 -0.12254716D-05  0.82772237D-03
 -0.71084289D-14  0.34767251D-05 -0.20433189D-03  0.21055686D-14 -0.27722479D-06
 -0.21912895D-04 -0.68448327D-04  0.68314744D-03 -0.61469911D-03 -0.94162609D-13
  0.12465024D-12  0.52376468D-05  0.82254942D-04 -0.16592133D-03  0.83666387D-04
  0.54146715D-14  0.45513923D-14 -0.49735725D-06 -0.13275154D-06  0.11552528D-03
 -0.11539253D-03 -0.52302689D-14  0.67842724D-14  0.65312612D-06  0.83155708D-14
  0.26222068D-05  0.13660778D-03 -0.19637431D-13  0.35457969D-07 -0.17583667D-03
 -0.53092810D-14 -0.79020785D-05 -0.23398667D-03  0.26363948D-13 -0.40871302D-14
 -0.22510425D-05 -0.68575742D-04  0.12734586D-13 -0.35321571D-06  0.94801515D-04
 -0.47319541D-15  0.71063434D-05  0.11092571D-03 -0.26702297D-13 -0.14253215D-02
 -0.26666245D-02 -0.46073356D-02 -0.74690324D-02 -0.11342442D-01 -0.15764928D-01
 -0.18743291D-01 -0.16697175D-01 -0.82921702D-02 -0.13349693D-02 -0.14084714D-04
 -0.69864738D-05 -0.23305707D-03 -0.81215723D-03 -0.29247097D-02 -0.64471585D-02
 -0.90755184D-02  0.43293181D-03  0.11876892D-01  0.70227318D-02  0.97703036D-07
  0.11834224D-05  0.24679026D-05  0.70775149D-05  0.36752549D-06 -0.30521677D-04
 -0.78862151D-04  0.64253168D-04  0.31243131D-03 -0.18682165D-03 -0.16810092D-03
  0.35851652D-09  0.47225012D-09  0.52096581D-09  0.43270289D-09  0.22977724D-09
  0.59283730D-10  0.40462937D+01  0.53299153D+01  0.58797309D+01  0.48835769D+01
  0.25933148D+01  0.66908878D+00 -0.70711174D+01 -0.93143158D+01 -0.10275148D+02
 -0.85343153D+01 -0.45319582D+01 -0.11692689D+01 -0.11307994D-13  0.10931841D-12
  0.15415037D-12  0.22047581D-12 -0.11164585D-14 -0.20219711D-12 -0.17290717D-03
  0.16715552D-02  0.23570674D-02  0.33712299D-02 -0.17071434D-04 -0.30917358D-02
  0.33069295D-03 -0.31969267D-02 -0.45080003D-02 -0.64476330D-02  0.32649906D-04
  0.59130876D-02  0.24274980D-11  0.26028041D-01 -0.45787722D-01 -0.10432874D-13
 -0.16246123D-03  0.21802868D-03 -0.14594877D-14 -0.11508839D-04  0.70976932D-05
  0.23192860D-04  0.42126400D-03 -0.44445686D-03 -0.16639103D-13  0.13388800D-13
 -0.39835692D-03  0.45347276D-05 -0.26913136D-03  0.26459663D-03 -0.14119866D-13
 -0.63119368D-14  0.44849844D-03 -0.66881950D-06  0.37980945D-04 -0.37312126D-04
  0.16397047D-15 -0.31472114D-14 -0.16587880D-04 -0.25314999D-14 -0.32760456D-04
  0.99523420D-05 -0.88047018D-14  0.51278009D-04  0.55998894D-05  0.16399201D-13
  0.47003358D-04 -0.35456915D-04  0.24700791D-15  0.23543217D-14 -0.47472797D-04
 -0.13913639D-04  0.55057799D-15  0.13979875D-04 -0.39866044D-04 -0.76135432D-14
  0.12843852D-03  0.81606962D-04 -0.33676446D-14 -0.15281841D-02 -0.28590693D-02
 -0.49398377D-02 -0.80080573D-02 -0.12161003D-01 -0.16902651D-01 -0.20095956D-01
 -0.17902176D-01 -0.88905993D-02 -0.14313113D-02 -0.15101179D-04 -0.74665974D-05
 -0.24907319D-03 -0.86797020D-03 -0.31257012D-02 -0.68902194D-02 -0.96992051D-02
  0.46268369D-03  0.12693094D-01  0.75053471D-02  0.86229447D-07  0.10444492D-05
  0.21780886D-05  0.62463790D-05  0.32436576D-06 -0.26937416D-04 -0.69601109D-04
  0.56707707D-04  0.34342682D-03 -0.19459953D-03 -0.16694332D-03  0.16035261D-08
  0.21122190D-08  0.23301082D-08  0.19353373D-08  0.10277178D-08  0.26515657D-09
 -0.41614118D+01 -0.54815528D+01 -0.60470108D+01 -0.50225159D+01 -0.26670953D+01
 -0.68812454D+00 -0.71641820D+01 -0.94369037D+01 -0.10410382D+02 -0.86466373D+01
 -0.45916044D+01 -0.11846579D+01 -0.65395056D-13  0.63219732D-12  0.89146422D-12
  0.12750297D-11 -0.64565707D-14 -0.11693224D-11  0.17882592D-03 -0.17287739D-02
 -0.24377517D-02 -0.34866297D-02  0.17655802D-04  0.31975683D-02  0.33523436D-03
 -0.32408301D-02 -0.45699087D-02 -0.65361783D-02  0.33098287D-04  0.59942920D-02
  0.10571639D-10 -0.26771694D-01 -0.46383061D-01 -0.74785596D-13  0.17154492D-03
  0.22272816D-03 -0.37746205D-14  0.11798069D-04  0.72037791D-05  0.21450501D-04
  0.43583353D-03 -0.45728403D-03 -0.12500456D-12  0.91829212D-13  0.40049290D-03
  0.49176534D-05 -0.27860284D-03  0.27368519D-03  0.85901663D-13 -0.54885820D-13
 -0.45017630D-03 -0.65467216D-06  0.38168115D-04 -0.37513443D-04 -0.31458420D-14
  0.21309088D-14  0.16944623D-04  0.10688736D-14  0.32837692D-04  0.10094953D-04
 -0.16972028D-14 -0.51263290D-04  0.48876878D-05 -0.15094180D-14 -0.47249787D-04
 -0.35172546D-04 -0.29382079D-14  0.52416430D-14  0.48739123D-04 -0.13056965D-04
 -0.13540262D-13 -0.14311355D-04 -0.40190389D-04 -0.21846671D-14 -0.13190601D-03
  0.79361285D-04  0.26619101D-13
MO    3     MO 0.0        OCC NO =    2.0000335  ORB. ENERGY =    0.000000
 -0.12813493D-10 -0.23882245D-10 -0.40495702D-10 -0.61285939D-10 -0.76449378D-10
 -0.65604940D-10 -0.25123207D-10 -0.14195705D-14 -0.15231060D-13 -0.56144555D-13
 -0.16416339D-12 -0.19782486D-12  0.23830101D-12 -0.11818292D-11  0.24586894D-13
  0.52164655D-14  0.25407498D-05  0.24636727D-05  0.16619790D-05  0.13865611D-12
  0.13444979D-12  0.90699031D-13 -0.17206513D-12 -0.16684529D-12 -0.11255285D-12
  0.22241333D-06  0.99123446D-13 -0.21009536D-12 -0.32006845D-05  0.60307150D-13
 -0.67824912D-13 -0.36160306D-06  0.59833607D-14 -0.52569144D-14  0.11361743D-13
  0.25834307D-13 -0.37196050D-13 -0.11527929D-03 -0.10780863D-05  0.39570583D-13
 -0.19424132D-13 -0.41689606D-13  0.61113738D-13 -0.33281303D-04 -0.22064671D-05
 -0.59695947D-14 -0.67263556D-14 -0.32563037D-14  0.99826593D-14  0.15866043D-03
  0.82181434D-06 -0.35117126D-14  0.67589709D-06  0.14084938D-13  0.16482121D-13
 -0.78338069D-05 -0.18157950D-13 -0.20370730D-13  0.58061157D-05 -0.24096862D-13
 -0.29075633D-13  0.78147426D-03 -0.89553328D-06  0.10491031D-16 -0.12076306D-13
  0.23173198D-05  0.16633403D-13  0.10835822D-13  0.36928005D-06 -0.16664876D-13
  0.25393097D-13 -0.24312370D-03 -0.13757827D-10 -0.25647362D-10 -0.43347535D-10
 -0.65159430D-10 -0.80036690D-10 -0.67548142D-10 -0.25399866D-10 -0.70133493D-15
 -0.52420441D-14 -0.19590716D-13 -0.54655046D-13 -0.73222693D-13  0.86462348D-13
 -0.11965039D-11  0.81419317D-13 -0.27069032D-13 -0.11210117D-04 -0.10510197D-04
 -0.74838865D-05 -0.12949153D-12 -0.12140654D-12 -0.86448690D-13  0.13810622D-12
  0.12948336D-12  0.92199864D-13 -0.32681405D-05  0.69651784D-14 -0.16684038D-12
  0.11479869D-05  0.51313795D-13 -0.27025853D-13  0.53665995D-07 -0.16388450D-14
  0.37172731D-14  0.43824346D-13 -0.60432496D-14 -0.37781097D-13 -0.12035423D-02
 -0.24017829D-05 -0.37109505D-13 -0.41533018D-13  0.56952830D-13 -0.15419812D-13
  0.45938711D-04 -0.11964540D-05 -0.54093330D-13 -0.19621365D-14 -0.78834372D-14
  0.98455737D-14 -0.72279431D-04  0.48579470D-06 -0.17472905D-13  0.15709900D-05
 -0.18632321D-13 -0.16551883D-13 -0.15917599D-05 -0.18598888D-14  0.40868712D-13
 -0.31212100D-05  0.57756853D-13  0.87869381D-14  0.35043860D-03 -0.65994873D-06
  0.20536813D-13  0.73650139D-14  0.18392466D-05 -0.94169127D-14  0.27643246D-15
  0.14059960D-06 -0.52193526D-13 -0.22371474D-13 -0.35486696D-03  0.33137274D-11
  0.61996304D-11  0.10711586D-10  0.17364740D-10  0.26370024D-10  0.36651852D-10
  0.43576243D-10  0.38819232D-10  0.19278451D-10  0.31036676D-11  0.32745526D-13
  0.10173959D-13  0.33938625D-12  0.11826931D-11  0.42590695D-11  0.93885886D-11
  0.13216103D-10 -0.63045117D-12 -0.17295565D-10 -0.10226760D-10  0.18991011D-15
  0.23002752D-14  0.47969813D-14  0.13756907D-13  0.71437704D-15 -0.59326456D-13
 -0.15328817D-12  0.12489198D-12 -0.61000614D-12  0.46045651D-13  0.26913229D-13
 -0.81988748D+01 -0.10799836D+02 -0.11913910D+02 -0.98954349D+01 -0.52547505D+01
 -0.13557531D+01  0.11870132D-09  0.15635740D-09  0.17248669D-09  0.14326370D-09
  0.76077002D-10  0.19628264D-10  0.90344193D-10  0.11900444D-09  0.13128052D-09
  0.10903875D-09  0.57902603D-10  0.14939174D-10  0.35812769D-03 -0.34621481D-02
 -0.48819902D-02 -0.69825374D-02  0.35358586D-04  0.64036453D-02 -0.55768587D-14
  0.53913482D-13  0.76023637D-13  0.10873391D-12 -0.55061322D-15 -0.99719253D-13
 -0.19912675D-14  0.19250293D-13  0.27144923D-13  0.38824420D-13 -0.19660140D-15
 -0.35605655D-13 -0.53589505D-01  0.92190618D-12  0.69524145D-12  0.42380512D-03
 -0.13363331D-13  0.29907314D-13  0.15182662D-04  0.14059640D-14  0.19471690D-15
  0.47063104D-14  0.13333251D-13 -0.18039561D-13 -0.90553541D-03 -0.50684888D-03
 -0.17114158D-13  0.97545313D-15 -0.20869830D-13  0.19894377D-13  0.47001755D-03
  0.31566860D-03 -0.31989337D-13  0.19927952D-14 -0.53314068D-14  0.33386116D-14
 -0.21328912D-04 -0.36841982D-04  0.21157986D-14 -0.22352595D-04  0.19103803D-14
  0.23419567D-15 -0.42804648D-04 -0.21331875D-14 -0.51076908D-14  0.10986243D-03
 -0.35979535D-14  0.44051038D-14 -0.10308099D-04 -0.17541617D-04 -0.24421185D-14
  0.47050596D-14  0.90727024D-04  0.10967971D-14  0.17998029D-14 -0.38102174D-04
  0.62295585D-14 -0.15914982D-13  0.14685150D-03  0.71485037D-10  0.13374088D-09
  0.23107457D-09  0.37459903D-09  0.56886457D-09  0.79066823D-09  0.94004394D-09
  0.83742381D-09  0.41588237D-09  0.66953543D-10  0.70639943D-12  0.19365811D-12
  0.64601103D-11  0.22512191D-10  0.81070045D-10  0.17870883D-09  0.25156435D-09
 -0.12000439D-10 -0.32921564D-09 -0.19466315D-09  0.43249732D-14  0.52385987D-13
  0.10924545D-12  0.31329694D-12  0.16269074D-13 -0.13510883D-11 -0.34909528D-11
  0.28442640D-11 -0.12395976D-10  0.15209948D-12  0.36129616D-13  0.82294977D+01
  0.10840174D+02  0.11958408D+02  0.99323945D+01  0.52743771D+01  0.13608169D+01
 -0.28717581D-09 -0.37827772D-09 -0.41729954D-09 -0.34659994D-09 -0.18405419D-09
 -0.47486943D-10  0.15427034D-08  0.20321013D-08  0.22417258D-08  0.18619288D-08
  0.98873587D-09  0.25509902D-09 -0.35960429D-03  0.34764229D-02  0.49021192D-02
  0.70113272D-02 -0.35504374D-04 -0.64300483D-02  0.56090937D-14 -0.54225109D-13
 -0.76463064D-13 -0.10936241D-12  0.55379584D-15  0.10029564D-12 -0.69812191D-13
  0.67489934D-12  0.95167852D-12  0.13611520D-11 -0.68926823D-14 -0.12483048D-11
  0.53787738D-01 -0.22896830D-11  0.10228577D-10 -0.42444453D-03  0.33331462D-13
 -0.96740931D-13 -0.15152281D-04 -0.11088871D-14 -0.20230739D-14  0.46189120D-13
 -0.15798585D-12  0.11179674D-12 -0.90906620D-03  0.51473784D-03  0.13757491D-12
  0.23704816D-13  0.33816705D-13 -0.57521521D-13  0.47358223D-03 -0.32006989D-03
  0.10178499D-12  0.22816858D-14 -0.59688066D-14  0.36871208D-14 -0.21767520D-04
  0.36898227D-04  0.86620822D-14  0.23129555D-04  0.14010357D-14 -0.42507007D-14
  0.41160069D-04 -0.49994709D-14  0.69217380D-14 -0.11054873D-03  0.79636382D-15
  0.58303640D-14 -0.89448796D-05  0.17608778D-04 -0.86026204D-14  0.14809429D-14
 -0.90474360D-04 -0.55908495D-14  0.10969600D-13  0.37648025D-04  0.31398711D-13
 -0.15412429D-13  0.14800820D-03
MO    4     MO 0.0        OCC NO =    2.0000300  ORB. ENERGY =    0.000000
  0.31324873D-10  0.58384413D-10  0.98998978D-10  0.14982443D-09  0.18689416D-09
  0.16038300D-09  0.61418167D-10  0.43402113D-14  0.46567619D-13  0.17165701D-12
  0.50191503D-12  0.60483202D-12 -0.72858426D-12  0.28079975D-11 -0.99070057D-14
  0.48475967D-13 -0.52017826D-02 -0.50439793D-02 -0.34026387D-02  0.16402244D-12
  0.15904659D-12  0.10729189D-12 -0.13988976D-11 -0.13564602D-11 -0.91506001D-12
 -0.14815152D-02  0.11057669D-12 -0.86631711D-13 -0.31075533D-03  0.79425317D-13
 -0.26568899D-13  0.14426844D-04  0.19683944D-14 -0.76368972D-15 -0.70524690D-13
 -0.75267159D-13  0.14579185D-12  0.94807812D-05 -0.38617579D-03  0.88792610D-14
 -0.20541838D-13  0.40142247D-13 -0.19600408D-13 -0.68632528D-05  0.17472553D-03
  0.83530329D-14 -0.26278283D-14  0.35684908D-14 -0.94066252D-15 -0.21182770D-05
  0.27516209D-04 -0.11437852D-13  0.63032119D-04  0.16131230D-13  0.41746472D-13
 -0.33272518D-03 -0.20522318D-13 -0.77752847D-13  0.14362882D-03 -0.27871373D-13
 -0.47486570D-13 -0.14102805D-04 -0.26666532D-04  0.15187209D-14  0.54934214D-14
  0.13871468D-03  0.20929783D-13  0.16399561D-13 -0.58715088D-04 -0.25485946D-13
 -0.32879825D-13  0.90523292D-05 -0.21906830D-10 -0.40838744D-10 -0.69023042D-10
 -0.10375451D-09 -0.12744383D-09 -0.10755809D-09 -0.40444652D-10 -0.35182346D-14
 -0.26296624D-13 -0.98276489D-13 -0.27417610D-12 -0.36732039D-12  0.43373689D-12
 -0.16881092D-11 -0.19105838D-12 -0.20714538D-13  0.37017921D-02  0.34706654D-02
  0.24713205D-02 -0.15987478D-12 -0.14989276D-12 -0.10673258D-12  0.71785273D-13
  0.67303256D-13  0.47923928D-13  0.84386061D-03  0.20874327D-15  0.49029549D-13
  0.87926290D-04  0.68727486D-14  0.30974435D-13 -0.15971692D-04  0.17838608D-14
 -0.99552870D-15  0.29618019D-13  0.92135897D-13 -0.12175392D-12  0.61093824D-07
 -0.10321103D-02  0.51037561D-14  0.21655454D-13 -0.37087604D-13  0.15432150D-13
  0.14541412D-05  0.91101050D-04 -0.13090551D-13  0.38159217D-14  0.11236236D-13
 -0.15052158D-13  0.70862490D-06 -0.41653733D-04 -0.69581788D-14 -0.86553474D-04
 -0.26981126D-13 -0.16745969D-13  0.13298972D-03 -0.38184880D-14  0.32484727D-13