 Entering Gaussian System, Link 0=/home/bruns/programas/chemistry/gaussian/g09/g09
 Input=GAUSSIAN.com
 Output=GAUSSIAN.log
 Initial command:
 /home/bruns/programas/chemistry/gaussian/g09/l1.exe /home/bruns/programas/chemistry/gaussian/work/Gau-45082.inp -scrdir=/home/bruns/programas/chemistry/gaussian/work/
 Entering Link 1 = /home/bruns/programas/chemistry/gaussian/g09/l1.exe PID=     45084.
  
 Copyright (c) 1988,1990,1992,1993,1995,1998,2003,2009,2010,
            Gaussian, Inc.  All Rights Reserved.
  
 This is part of the Gaussian(R) 09 program.  It is based on
 the Gaussian(R) 03 system (copyright 2003, Gaussian, Inc.),
 the Gaussian(R) 98 system (copyright 1998, Gaussian, Inc.),
 the Gaussian(R) 94 system (copyright 1995, Gaussian, Inc.),
 the Gaussian 92(TM) system (copyright 1992, Gaussian, Inc.),
 the Gaussian 90(TM) system (copyright 1990, Gaussian, Inc.),
 the Gaussian 88(TM) system (copyright 1988, Gaussian, Inc.),
 the Gaussian 86(TM) system (copyright 1986, Carnegie Mellon
 University), and the Gaussian 82(TM) system (copyright 1983,
 Carnegie Mellon University). Gaussian is a federally registered
 trademark of Gaussian, Inc.
  
 This software contains proprietary and confidential information,
 including trade secrets, belonging to Gaussian, Inc.
  
 This software is provided under written license and may be
 used, copied, transmitted, or stored only in accord with that
 written license.
  
 The following legend is applicable only to US Government
 contracts under FAR:
  
                    RESTRICTED RIGHTS LEGEND
  
 Use, reproduction and disclosure by the US Government is
 subject to restrictions as set forth in subparagraphs (a)
 and (c) of the Commercial Computer Software - Restricted
 Rights clause in FAR 52.227-19.
  
 Gaussian, Inc.
 340 Quinnipiac St., Bldg. 40, Wallingford CT 06492
  
  
 ---------------------------------------------------------------
 Warning -- This program may not be used in any manner that
 competes with the business of Gaussian, Inc. or will provide
 assistance to any competitor of Gaussian, Inc.  The licensee
 of this program is prohibited from giving any competitor of
 Gaussian, Inc. access to this program.  By using this program,
 the user acknowledges that Gaussian, Inc. is engaged in the
 business of creating and licensing software in the field of
 computational chemistry and represents and warrants to the
 licensee that it is not a competitor of Gaussian, Inc. and that
 it will not use this program in any manner prohibited above.
 ---------------------------------------------------------------
  

 Cite this work as:
 Gaussian 09, Revision B.01,
 M. J. Frisch, G. W. Trucks, H. B. Schlegel, G. E. Scuseria, 
 M. A. Robb, J. R. Cheeseman, G. Scalmani, V. Barone, B. Mennucci, 
 G. A. Petersson, H. Nakatsuji, M. Caricato, X. Li, H. P. Hratchian, 
 A. F. Izmaylov, J. Bloino, G. Zheng, J. L. Sonnenberg, M. Hada, 
 M. Ehara, K. Toyota, R. Fukuda, J. Hasegawa, M. Ishida, T. Nakajima, 
 Y. Honda, O. Kitao, H. Nakai, T. Vreven, J. A. Montgomery, Jr., 
 J. E. Peralta, F. Ogliaro, M. Bearpark, J. J. Heyd, E. Brothers, 
 K. N. Kudin, V. N. Staroverov, T. Keith, R. Kobayashi, J. Normand, 
 K. Raghavachari, A. Rendell, J. C. Burant, S. S. Iyengar, J. Tomasi, 
 M. Cossi, N. Rega, J. M. Millam, M. Klene, J. E. Knox, J. B. Cross, 
 V. Bakken, C. Adamo, J. Jaramillo, R. Gomperts, R. E. Stratmann, 
 O. Yazyev, A. J. Austin, R. Cammi, C. Pomelli, J. W. Ochterski, 
 R. L. Martin, K. Morokuma, V. G. Zakrzewski, G. A. Voth, 
 P. Salvador, J. J. Dannenberg, S. Dapprich, A. D. Daniels, 
 O. Farkas, J. B. Foresman, J. V. Ortiz, J. Cioslowski, 
 and D. J. Fox, Gaussian, Inc., Wallingford CT, 2010.
 
 ******************************************
 Gaussian 09:  EM64L-G09RevB.01 12-Aug-2010
                27-Nov-2021 
 ******************************************
 %nproc=8
 Will use up to    8 processors via shared memory.
 %mem=8GB
 -----------------------------------------------------
 # qcisd/aug-cc-pvtz nosymm density=current output=wfn
 -----------------------------------------------------
 1/30=1,38=1/1;
 2/12=2,15=1,17=6,18=5,40=1/2;
 3/5=16,6=1,7=10,11=9,16=1,25=1,30=1,71=1/1,2,3;
 4//1;
 5/5=2,38=5/2;
 8/6=4,9=120000,10=1/1,4;
 9/5=8,15=1/13;
 11/28=-7,31=1,32=3,42=3/11;
 10/5=6,13=10,31=1/2;
 6/7=2,8=2,9=2,10=2,22=-1,31=1/1;
 99/5=1,6=1100,9=1/99;
 ------------------
 cl2co-wavefunction
 ------------------
 Symbolic Z-matrix:
 Charge =  0 Multiplicity = 1
 O                     0.        0.        0.6834 
 C                     0.01      0.       -0.49469 
 Cl                    0.       -1.44687  -1.46981 
 Cl                    0.        1.44687  -1.46981 
 
                          Input orientation:                          
 ---------------------------------------------------------------------
 Center     Atomic      Atomic             Coordinates (Angstroms)
 Number     Number       Type             X           Y           Z
 ---------------------------------------------------------------------
      1          8           0        0.000000    0.000000    0.683397
      2          6           0        0.010000    0.000000   -0.494687
      3         17           0        0.000000   -1.446870   -1.469805
      4         17           0        0.000000    1.446870   -1.469805
 ---------------------------------------------------------------------
                    Distance matrix (angstroms):
                    1          2          3          4
     1  O    0.000000
     2  C    1.178126   0.000000
     3  Cl   2.594169   1.744817   0.000000
     4  Cl   2.594169   1.744817   2.893740   0.000000
 Symmetry turned off by external request.
 Stoichiometry    CCl2O
 Framework group  CS[SG(CO),X(Cl2)]
 Deg. of freedom     4
 Full point group                 CS      NOp   2
 Rotational constants (GHZ):      7.9178029      3.4517858      2.4038529
 Standard basis: Aug-CC-pVTZ (5D, 7F)
 Integral buffers will be    131072 words long.
 Raffenetti 1 integral format.
 Two-electron integral symmetry is turned off.
   192 basis functions,   372 primitive gaussians,   228 cartesian basis functions
    24 alpha electrons       24 beta electrons
       nuclear repulsion energy       191.7640983433 Hartrees.
 NAtoms=    4 NActive=    4 NUniq=    4 SFac= 1.00D+00 NAtFMM=   50 NAOKFM=F Big=F
 One-electron integrals computed using PRISM.
 NBasis=   192 RedAO= T  NBF=   192
 NBsUse=   192 1.00D-06 NBFU=   192
 Harris functional with IExCor=  205 diagonalized for initial guess.
 ExpMin= 3.57D-02 ExpMax= 4.56D+05 ExpMxC= 1.44D+03 IAcc=3 IRadAn=         0 AccDes= 0.00D+00
 HarFok:  IExCor=  205 AccDes= 0.00D+00 IRadAn=         0 IDoV= 1
 ScaDFX=  1.000000  1.000000  1.000000  1.000000
 FoFCou: FMM=F IPFlag=           0 FMFlag=      100000 FMFlg1=           0
         NFxFlg=           0 DoJE=T BraDBF=F KetDBF=T FulRan=T
         Omega=  0.000000  0.000000  1.000000  0.000000  0.000000 ICntrl=     500 IOpCl=  0
         NMat0=    1 NMatS0=    1 NMatT0=    0 NMatD0=    1 NMtDS0=    0 NMtDT0=    0
         I1Cent=           4 NGrid=           0.
 Symmetry not used in FoFCou.
 Requested convergence on RMS density matrix=1.00D-08 within 128 cycles.
 Requested convergence on MAX density matrix=1.00D-06.
 Requested convergence on             energy=1.00D-06.
 No special actions if energy rises.
 Keep R1 ints in memory in canonical form, NReq=346956363.
 DSYEVD returned Info=         385 IAlg= 4 N=   192 NDim=   192 NE2=     3816698 trying DSYEV.
 SCF Done:  E(RHF) =  -1031.80271120     A.U. after   12 cycles
             Convg  =    0.4656D-08             -V/T =  2.0003
 ExpMin= 3.57D-02 ExpMax= 4.56D+05 ExpMxC= 1.44D+03 IAcc=3 IRadAn=         5 AccDes= 0.00D+00
 HarFok:  IExCor=  205 AccDes= 0.00D+00 IRadAn=         5 IDoV=-2
 ScaDFX=  1.000000  1.000000  1.000000  1.000000
 DSYEVD returned Info=         101 IAlg= 4 N=    50 NDim=    50 NE2=    21472416 trying DSYEV.
 Range of M.O.s used for correlation:    13   192
 NBasis=   192 NAE=    24 NBE=    24 NFC=    12 NFV=     0
 NROrb=    180 NOA=    12 NOB=    12 NVA=   168 NVB=   168

 **** Warning!!: The largest alpha MO coefficient is  0.28702537D+02

 Semi-Direct transformation.
 ModeAB=           2 MOrb=            12 LenV=    1072714337
 LASXX=     33405819 LTotXX=    33405819 LenRXX=    33405819
 LTotAB=    33954012 MaxLAS=    56388960 LenRXY=    56388960
 NonZer=    66811638 LenScr=   100987392 LnRSAI=           0
 LnScr1=           0 LExtra=           0 Total=    190782171
 MaxDsk=          -1 SrtSym=           F ITran=            4
 JobTyp=0 Pass  1:  I=   1 to  12.
 (rs|ai) integrals will be sorted in core.
 Spin components of T(2) and E(2):
     alpha-alpha T2 =       0.3523712147D-01 E2=     -0.1018057004D+00
     alpha-beta  T2 =       0.1834214667D+00 E2=     -0.5758067653D+00
     beta-beta   T2 =       0.3523712147D-01 E2=     -0.1018057004D+00
 ANorm=    0.1119774848D+01
 E2 =    -0.7794181661D+00 EUMP2 =    -0.10325821293628D+04
 R2 and R3 integrals will be kept in memory, NReq=   687553722.
 Iterations=  50 Convergence= 0.100D-07
 Iteration Nr.   1
 **********************
 DD1Dir will call FoFMem   1 times, MxPair=       156
 NAB=    78 NAA=     0 NBB=     0.
 MP4(R+Q)=  0.22521518D-01
 E3=       -0.19052113D-01        EUMP3=      -0.10326011815D+04
 E4(DQ)=    0.28535616D-02        UMP4(DQ)=   -0.10325983279D+04
 E4(SDQ)=  -0.61294541D-02        UMP4(SDQ)=  -0.10326073109D+04
 DE(Corr)= -0.77594876     E(Corr)=     -1032.5786600    
 NORM(A)=   0.11213568D+01
 Iteration Nr.   2
 **********************
 DD1Dir will call FoFMem   1 times, MxPair=       156
 NAB=    78 NAA=     0 NBB=     0.
 DE(Corr)= -0.80166443     E(CORR)=     -1032.6043756     Delta=-2.57D-02
 NORM(A)=   0.11307185D+01
 Iteration Nr.   3
 **********************
 DD1Dir will call FoFMem   1 times, MxPair=       156
 NAB=    78 NAA=     0 NBB=     0.
 DE(Corr)= -0.80005991     E(CORR)=     -1032.6027711     Delta= 1.60D-03
 NORM(A)=   0.11333230D+01
 Iteration Nr.   4
 **********************
 DD1Dir will call FoFMem   1 times, MxPair=       156
 NAB=    78 NAA=     0 NBB=     0.
 DE(Corr)= -0.80249021     E(CORR)=     -1032.6052014     Delta=-2.43D-03
 NORM(A)=   0.11343347D+01
 Iteration Nr.   5
 **********************
 DD1Dir will call FoFMem   1 times, MxPair=       156
 NAB=    78 NAA=     0 NBB=     0.
 DE(Corr)= -0.80280760     E(CORR)=     -1032.6055188     Delta=-3.17D-04
 NORM(A)=   0.11347253D+01
 Iteration Nr.   6
 **********************
 DD1Dir will call FoFMem   1 times, MxPair=       156
 NAB=    78 NAA=     0 NBB=     0.
 DE(Corr)= -0.80285827     E(CORR)=     -1032.6055695     Delta=-5.07D-05
 NORM(A)=   0.11347965D+01
 Iteration Nr.   7
 **********************
 DD1Dir will call FoFMem   1 times, MxPair=       156
 NAB=    78 NAA=     0 NBB=     0.
 DE(Corr)= -0.80286742     E(CORR)=     -1032.6055786     Delta=-9.15D-06
 NORM(A)=   0.11347977D+01
 Iteration Nr.   8
 **********************
 DD1Dir will call FoFMem   1 times, MxPair=       156
 NAB=    78 NAA=     0 NBB=     0.
 DE(Corr)= -0.80286701     E(CORR)=     -1032.6055782     Delta= 4.14D-07
 NORM(A)=   0.11348058D+01
 Iteration Nr.   9
 **********************
 DD1Dir will call FoFMem   1 times, MxPair=       156
 NAB=    78 NAA=     0 NBB=     0.
 DE(Corr)= -0.80286574     E(CORR)=     -1032.6055769     Delta= 1.27D-06
 NORM(A)=   0.11348053D+01
 Iteration Nr.  10
 **********************
 DD1Dir will call FoFMem   1 times, MxPair=       156
 NAB=    78 NAA=     0 NBB=     0.
 DE(Corr)= -0.80286693     E(CORR)=     -1032.6055781     Delta=-1.19D-06
 NORM(A)=   0.11348070D+01
 Iteration Nr.  11
 **********************
 DD1Dir will call FoFMem   1 times, MxPair=       156
 NAB=    78 NAA=     0 NBB=     0.
 DE(Corr)= -0.80286775     E(CORR)=     -1032.6055789     Delta=-8.18D-07
 NORM(A)=   0.11348081D+01
 Iteration Nr.  12
 **********************
 DD1Dir will call FoFMem   1 times, MxPair=       156
 NAB=    78 NAA=     0 NBB=     0.
 DE(Corr)= -0.80286800     E(CORR)=     -1032.6055792     Delta=-2.48D-07
 NORM(A)=   0.11348088D+01
 Iteration Nr.  13
 **********************
 DD1Dir will call FoFMem   1 times, MxPair=       156
 NAB=    78 NAA=     0 NBB=     0.
 DE(Corr)= -0.80286833     E(CORR)=     -1032.6055795     Delta=-3.25D-07
 NORM(A)=   0.11348092D+01
 Iteration Nr.  14
 **********************
 DD1Dir will call FoFMem   1 times, MxPair=       156
 NAB=    78 NAA=     0 NBB=     0.
 DE(Corr)= -0.80286839     E(CORR)=     -1032.6055796     Delta=-6.48D-08
 NORM(A)=   0.11348094D+01
 Iteration Nr.  15
 **********************
 DD1Dir will call FoFMem   1 times, MxPair=       156
 NAB=    78 NAA=     0 NBB=     0.
 DE(Corr)= -0.80286844     E(CORR)=     -1032.6055796     Delta=-4.78D-08
 NORM(A)=   0.11348095D+01
 Iteration Nr.  16
 **********************
 DD1Dir will call FoFMem   1 times, MxPair=       156
 NAB=    78 NAA=     0 NBB=     0.
 DE(Corr)= -0.80286845     E(CORR)=     -1032.6055797     Delta=-1.61D-08
 NORM(A)=   0.11348095D+01
 Iteration Nr.  17
 **********************
 DD1Dir will call FoFMem   1 times, MxPair=       156
 NAB=    78 NAA=     0 NBB=     0.
 DE(Corr)= -0.80286845     E(CORR)=     -1032.6055796     Delta= 1.56D-09
 NORM(A)=   0.11348095D+01
 Iteration Nr.  18
 **********************
 DD1Dir will call FoFMem   1 times, MxPair=       156
 NAB=    78 NAA=     0 NBB=     0.
 DE(Corr)= -0.80286845     E(CORR)=     -1032.6055797     Delta=-1.02D-09
 NORM(A)=   0.11348095D+01
 Iteration Nr.  19
 **********************
 DD1Dir will call FoFMem   1 times, MxPair=       156
 NAB=    78 NAA=     0 NBB=     0.
 DE(Corr)= -0.80286845     E(CORR)=     -1032.6055796     Delta= 6.16D-10
 NORM(A)=   0.11348095D+01
 Largest amplitude= 3.27D-02

 Z-AMPLITUDE ITERATIONS

 Iteration Nr.   1
 **********************
 DD1Dir will call FoFMem   1 times, MxPair=       156
 NAB=    78 NAA=     0 NBB=     0.
 DE(Z)  -0.77483050D+00          E(Z)=    -0.10325775417D+04
 NORM(A)=   0.11347136D+01
 Iteration Nr.   2
 **********************
 DD1Dir will call FoFMem   1 times, MxPair=       156
 NAB=    78 NAA=     0 NBB=     0.
 DE(Z)  -0.77482733D+00          E(Z)=    -0.10325775385D+04
 NORM(A)=   0.11347267D+01
 Iteration Nr.   3
 **********************
 DD1Dir will call FoFMem   1 times, MxPair=       156
 NAB=    78 NAA=     0 NBB=     0.
 DE(Z)  -0.77482802D+00          E(Z)=    -0.10325775392D+04
 NORM(A)=   0.11351104D+01
 Iteration Nr.   4
 **********************
 DD1Dir will call FoFMem   1 times, MxPair=       156
 NAB=    78 NAA=     0 NBB=     0.
 DE(Z)  -0.77483998D+00          E(Z)=    -0.10325775512D+04
 NORM(A)=   0.11346211D+01
 Iteration Nr.   5
 **********************
 DD1Dir will call FoFMem   1 times, MxPair=       156
 NAB=    78 NAA=     0 NBB=     0.
 DE(Z)  -0.77482438D+00          E(Z)=    -0.10325775356D+04
 NORM(A)=   0.11251400D+01
 Iteration Nr.   6
 **********************
 DD1Dir will call FoFMem   1 times, MxPair=       156
 NAB=    78 NAA=     0 NBB=     0.
 DE(Z)  -0.77451274D+00          E(Z)=    -0.10325772239D+04
 NORM(A)=   0.11251410D+01
 Iteration Nr.   7
 **********************
 DD1Dir will call FoFMem   1 times, MxPair=       156
 NAB=    78 NAA=     0 NBB=     0.
 DE(Z)  -0.77451236D+00          E(Z)=    -0.10325772236D+04
 NORM(A)=   0.11251415D+01
 Iteration Nr.   8
 **********************
 DD1Dir will call FoFMem   1 times, MxPair=       156
 NAB=    78 NAA=     0 NBB=     0.
 DE(Z)  -0.77451238D+00          E(Z)=    -0.10325772236D+04
 NORM(A)=   0.11251418D+01
 Iteration Nr.   9
 **********************
 DD1Dir will call FoFMem   1 times, MxPair=       156
 NAB=    78 NAA=     0 NBB=     0.
 DE(Z)  -0.77451261D+00          E(Z)=    -0.10325772238D+04
 NORM(A)=   0.11251421D+01
 Iteration Nr.  10
 **********************
 DD1Dir will call FoFMem   1 times, MxPair=       156
 NAB=    78 NAA=     0 NBB=     0.
 DE(Z)  -0.77451254D+00          E(Z)=    -0.10325772237D+04
 NORM(A)=   0.11251423D+01
 Iteration Nr.  11
 **********************
 DD1Dir will call FoFMem   1 times, MxPair=       156
 NAB=    78 NAA=     0 NBB=     0.
 DE(Z)  -0.77451259D+00          E(Z)=    -0.10325772238D+04
 NORM(A)=   0.11251423D+01
 Iteration Nr.  12
 **********************
 DD1Dir will call FoFMem   1 times, MxPair=       156
 NAB=    78 NAA=     0 NBB=     0.
 DE(Z)  -0.77451258D+00          E(Z)=    -0.10325772238D+04
 NORM(A)=   0.11251423D+01
 Iteration Nr.  13
 **********************
 DD1Dir will call FoFMem   1 times, MxPair=       156
 NAB=    78 NAA=     0 NBB=     0.
 DE(Z)  -0.77451259D+00          E(Z)=    -0.10325772238D+04
 NORM(A)=   0.11251423D+01
 Iteration Nr.  14
 **********************
 DD1Dir will call FoFMem   1 times, MxPair=       156
 NAB=    78 NAA=     0 NBB=     0.
 DE(Z)  -0.77451259D+00          E(Z)=    -0.10325772238D+04
 NORM(A)=   0.11251423D+01
 Iteration Nr.  15
 **********************
 DD1Dir will call FoFMem   1 times, MxPair=       156
 NAB=    78 NAA=     0 NBB=     0.
 DE(Z)  -0.77451259D+00          E(Z)=    -0.10325772238D+04
 NORM(A)=   0.11251423D+01
 Discarding MO integrals.
          Differentiating once with respect to electric field.
                with respect to dipole field.
          Electric field/nuclear overlap derivatives assumed to be zero.
          Keep R1 ints in memory in canonical form, NReq=342715808.
          There are     1 degrees of freedom in the 1st order CPHF.  IDoFFX=0.
 LinEq1:  Iter=  0 NonCon=     1 RMS=2.34D-03 Max=5.55D-02
 AX will form     1 AO Fock derivatives at one time.
 LinEq1:  Iter=  1 NonCon=     1 RMS=8.30D-04 Max=1.86D-02
 LinEq1:  Iter=  2 NonCon=     1 RMS=3.10D-04 Max=5.59D-03
 LinEq1:  Iter=  3 NonCon=     1 RMS=1.28D-04 Max=3.27D-03
 LinEq1:  Iter=  4 NonCon=     1 RMS=5.11D-05 Max=1.23D-03
 LinEq1:  Iter=  5 NonCon=     1 RMS=1.65D-05 Max=3.60D-04
 LinEq1:  Iter=  6 NonCon=     1 RMS=4.17D-06 Max=5.75D-05
 LinEq1:  Iter=  7 NonCon=     1 RMS=9.92D-07 Max=1.16D-05
 LinEq1:  Iter=  8 NonCon=     1 RMS=2.10D-07 Max=3.13D-06
 LinEq1:  Iter=  9 NonCon=     1 RMS=4.75D-08 Max=8.00D-07
 LinEq1:  Iter= 10 NonCon=     1 RMS=1.20D-08 Max=2.23D-07
 LinEq1:  Iter= 11 NonCon=     1 RMS=2.52D-09 Max=3.82D-08
 LinEq1:  Iter= 12 NonCon=     1 RMS=4.63D-10 Max=1.16D-08
 LinEq1:  Iter= 13 NonCon=     1 RMS=7.96D-11 Max=1.21D-09
 LinEq1:  Iter= 14 NonCon=     0 RMS=1.39D-11 Max=1.49D-10
 Linear equations converged to 1.000D-10 1.000D-09 after    14 iterations.
 End of Minotr Frequency-dependent properties file   721 does not exist.
 End of Minotr Frequency-dependent properties file   722 does not exist.

 **********************************************************************

            Population analysis using the QCI/CC density.

 **********************************************************************

     Natural Orbital Coefficients:
                           1         2         3         4         5
     Eigenvalues --     2.00004   2.00004   2.00003   2.00003   2.00003
   1 1   O  1S          0.00000   0.01081   0.00000  -0.00039   0.00000
   2        2S          0.00000  -0.00025   0.00000   0.00003   0.00000
   3        3S          0.00000   0.00050   0.00000  -0.00001   0.00000
   4        4S          0.00000   0.00084   0.00000   0.00002   0.00000
   5        5S          0.00000   0.00297   0.00000   0.00000   0.00000
   6        6PX         0.00000   0.00000   0.00000  -0.00106   0.00000
   7        6PY        -0.00018   0.00000   0.00001   0.00000   0.00026
   8        6PZ         0.00000   0.00032   0.00000  -0.00001   0.00000
   9        7PX         0.00000   0.00000   0.00000  -0.00158   0.00000
  10        7PY        -0.00100   0.00000   0.00001   0.00000   0.00049
  11        7PZ         0.00000   0.00062   0.00000  -0.00002   0.00000
  12        8PX         0.00000   0.00004   0.00000  -0.00150   0.00000
  13        8PY        -0.00366   0.00000   0.00013   0.00000   0.00155
  14        8PZ         0.00000   0.00239   0.00000  -0.00001   0.00000
  15        9PX         0.00000   0.00002   0.00000   0.00034   0.00000
  16        9PY        -0.00047   0.00000   0.00006   0.00000   0.00117
  17        9PZ         0.00000   0.00025   0.00000   0.00000   0.00000
  18       10D 0        0.00000   0.00001   0.00000   0.00000   0.00000
  19       10D+1        0.00000   0.00000   0.00000  -0.00003   0.00000
  20       10D-1       -0.00002   0.00000   0.00000   0.00000   0.00003
  21       10D+2        0.00000   0.00003   0.00000   0.00000   0.00000
  22       10D-2        0.00000   0.00000   0.00001   0.00000   0.00000
  23       11D 0        0.00000  -0.00022   0.00000   0.00000   0.00000
  24       11D+1        0.00000   0.00000   0.00000   0.00013   0.00000
  25       11D-1       -0.00005   0.00000  -0.00001   0.00000  -0.00009
  26       11D+2        0.00000  -0.00024   0.00000   0.00000   0.00000
  27       11D-2       -0.00001   0.00000   0.00003   0.00000   0.00000
  28       12D 0        0.00000  -0.00072   0.00000   0.00002   0.00000
  29       12D+1        0.00000   0.00000   0.00000   0.00014   0.00000
  30       12D-1        0.00058   0.00000  -0.00004   0.00000  -0.00028
  31       12D+2        0.00000   0.00019   0.00000   0.00003   0.00000
  32       12D-2       -0.00003   0.00000  -0.00083   0.00000   0.00002
  33       13F 0        0.00000   0.00001   0.00000   0.00000   0.00000
  34       13F+1        0.00000   0.00000   0.00000   0.00002   0.00000
  35       13F-1        0.00003   0.00000   0.00000   0.00000  -0.00002
  36       13F+2        0.00000   0.00000   0.00000   0.00000   0.00000
  37       13F-2        0.00000   0.00000  -0.00006   0.00000   0.00000
  38       13F+3        0.00000   0.00000   0.00000   0.00004   0.00000
  39       13F-3        0.00004   0.00000   0.00000   0.00000   0.00000
  40       14F 0        0.00000   0.00011   0.00000  -0.00001   0.00000
  41       14F+1        0.00000   0.00000   0.00000  -0.00008   0.00000
  42       14F-1        0.00030   0.00000   0.00000   0.00000   0.00003
  43       14F+2        0.00000   0.00014   0.00000  -0.00001   0.00000
  44       14F-2        0.00001   0.00000   0.00020   0.00000  -0.00001
  45       14F+3        0.00000   0.00000   0.00000  -0.00017   0.00000
  46       14F-3       -0.00019   0.00000  -0.00001   0.00000   0.00004
  47 2   C  1S          0.00000  -0.01164   0.00000   0.00148   0.00000
  48        2S          0.00000   0.00143   0.00000  -0.00004   0.00000
  49        3S          0.00000  -0.00016   0.00000   0.00005   0.00000
  50        4S          0.00000  -0.00008   0.00000   0.00000   0.00000
  51        5S          0.00000   0.00125   0.00000   0.00006   0.00000
  52        6PX         0.00000   0.00000   0.00000   0.00169   0.00000
  53        6PY         0.00051   0.00000  -0.00002   0.00000  -0.00071
  54        6PZ         0.00000   0.00045   0.00000   0.00002   0.00000
  55        7PX         0.00000  -0.00001   0.00000   0.00197   0.00000
  56        7PY         0.00034   0.00000  -0.00001   0.00000   0.00016
  57        7PZ         0.00000   0.00193   0.00000   0.00001   0.00000
  58        8PX         0.00000  -0.00001   0.00000   0.00087   0.00000
  59        8PY         0.00070   0.00000  -0.00019   0.00000   0.00248
  60        8PZ         0.00000  -0.00201   0.00000   0.00010   0.00000
  61        9PX         0.00000   0.00000   0.00000  -0.00072   0.00000
  62        9PY        -0.00040   0.00000  -0.00008   0.00000  -0.00112
  63        9PZ         0.00000  -0.00099   0.00000   0.00000   0.00000
  64       10D 0        0.00000  -0.00032   0.00000   0.00000   0.00000
  65       10D+1        0.00000   0.00000   0.00000  -0.00031   0.00000
  66       10D-1        0.00005   0.00000   0.00000   0.00000  -0.00002
  67       10D+2        0.00000  -0.00022   0.00000   0.00000   0.00000
  68       10D-2        0.00000   0.00000   0.00036   0.00000   0.00000
  69       11D 0        0.00000   0.00038   0.00000  -0.00002   0.00000
  70       11D+1        0.00000  -0.00002   0.00000   0.00024   0.00000
  71       11D-1        0.00019   0.00000  -0.00005   0.00000  -0.00153
  72       11D+2        0.00000   0.00065   0.00000  -0.00002   0.00000
  73       11D-2        0.00001   0.00000  -0.00012   0.00000  -0.00001
  74       12D 0        0.00000  -0.00394   0.00000  -0.00009   0.00000
  75       12D+1        0.00000  -0.00001   0.00000  -0.00082   0.00000
  76       12D-1        0.00108   0.00000  -0.00007   0.00000  -0.00226
  77       12D+2        0.00000  -0.00228   0.00000  -0.00007   0.00000
  78       12D-2       -0.00001   0.00000   0.00143   0.00000  -0.00001
  79       13F 0        0.00000   0.00017   0.00000   0.00000   0.00000
  80       13F+1        0.00000   0.00000   0.00000   0.00006   0.00000
  81       13F-1       -0.00041   0.00000   0.00000   0.00000   0.00002
  82       13F+2        0.00000   0.00002   0.00000   0.00000   0.00000
  83       13F-2        0.00000   0.00000  -0.00011   0.00000   0.00000
  84       13F+3        0.00000   0.00000   0.00000  -0.00009   0.00000
  85       13F-3       -0.00009   0.00000   0.00000   0.00000   0.00000
  86       14F 0        0.00000  -0.00090   0.00000  -0.00002   0.00000
  87       14F+1        0.00000  -0.00002   0.00000   0.00011   0.00000
  88       14F-1        0.00402   0.00000  -0.00002   0.00000  -0.00044
  89       14F+2        0.00000  -0.00005   0.00000  -0.00004   0.00000
  90       14F-2        0.00001   0.00000   0.00120   0.00000  -0.00001
  91       14F+3        0.00000  -0.00002   0.00000   0.00061   0.00000
  92       14F-3        0.00119   0.00000   0.00001   0.00000  -0.00042
  93 3   Cl 1S         -0.00044  -0.00239  -0.00033   0.00113  -0.17361
  94        2S          0.00184   0.00846   0.00110  -0.00380   0.58606
  95        3S          0.00041   0.00014  -0.00003   0.00015  -0.01735
  96        4S          0.00012   0.00047   0.00008  -0.00029   0.04544
  97        5S         -0.00055  -0.00104  -0.00001   0.00001  -0.00098
  98        6S         -0.00067  -0.00196  -0.00009  -0.00002  -0.00161
  99        7PX        -0.00205   0.00288   0.69246  -0.69194  -0.00545
 100        7PY        -0.39318   0.34596  -0.00806   0.00990  -0.30893
 101        7PZ         0.57068  -0.60010  -0.00307   0.00231  -0.21450
 102        8PX         0.00005  -0.00006  -0.01495   0.01340   0.00010
 103        8PY         0.00989  -0.00733   0.00019  -0.00019   0.00601
 104        8PZ        -0.01393   0.01388   0.00008  -0.00003   0.00434
 105        9PX        -0.00011   0.00015   0.03665  -0.03711  -0.00030
 106        9PY        -0.02044   0.01802  -0.00043   0.00054  -0.01756
 107        9PZ         0.02981  -0.03147  -0.00017   0.00013  -0.01222
 108       10PX         0.00000  -0.00004  -0.00381   0.00332   0.00004
 109       10PY         0.00309  -0.00150   0.00003   0.00000   0.00170
 110       10PZ        -0.00500   0.00198  -0.00004  -0.00009   0.00133
 111       11PX         0.00000  -0.00001  -0.00056   0.00081   0.00000
 112       11PY         0.00040  -0.00043   0.00001   0.00000   0.00015
 113       11PZ        -0.00064   0.00026  -0.00001  -0.00001  -0.00009
 114       12D 0        0.00043  -0.00025   0.00000   0.00000  -0.00005
 115       12D+1        0.00000   0.00000   0.00017  -0.00015   0.00000
 116       12D-1        0.00022  -0.00013   0.00000   0.00000   0.00013
 117       12D+2        0.00024  -0.00013   0.00001   0.00000  -0.00005
 118       12D-2        0.00000   0.00000   0.00029  -0.00015   0.00000
 119       13D 0       -0.00193   0.00106   0.00000   0.00000   0.00023
 120       13D+1       -0.00002   0.00000  -0.00072   0.00060   0.00001
 121       13D-1       -0.00080   0.00102   0.00002  -0.00001   0.00064
 122       13D+2       -0.00085   0.00063  -0.00002   0.00003  -0.00039
 123       13D-2        0.00001  -0.00001  -0.00107   0.00097   0.00001
 124       14D 0       -0.00006  -0.00076  -0.00002  -0.00003  -0.00005
 125       14D+1       -0.00001  -0.00001   0.00043   0.00005   0.00000
 126       14D-1       -0.00006  -0.00020  -0.00001  -0.00001   0.00028
 127       14D+2        0.00008  -0.00045   0.00000  -0.00002   0.00014
 128       14D-2        0.00000   0.00000   0.00025  -0.00010   0.00001
 129       15F 0        0.00000   0.00001   0.00000   0.00000   0.00002
 130       15F+1        0.00000   0.00000  -0.00007  -0.00004   0.00000
 131       15F-1        0.00001   0.00003   0.00000   0.00000   0.00002
 132       15F+2        0.00003   0.00002   0.00000   0.00000  -0.00001
 133       15F-2        0.00000   0.00000   0.00000  -0.00001   0.00000
 134       15F+3        0.00000   0.00000  -0.00001  -0.00001   0.00000
 135       15F-3        0.00002   0.00004   0.00000   0.00000  -0.00001
 136       16F 0       -0.00039  -0.00013  -0.00001  -0.00001  -0.00014
 137       16F+1       -0.00001   0.00000   0.00014   0.00016   0.00000
 138       16F-1       -0.00090   0.00050   0.00000  -0.00001   0.00016
 139       16F+2       -0.00006  -0.00029  -0.00001   0.00001  -0.00022
 140       16F-2       -0.00001   0.00000  -0.00036   0.00033   0.00001
 141       16F+3       -0.00001   0.00000   0.00032  -0.00028  -0.00001
 142       16F-3       -0.00019   0.00018  -0.00001   0.00001  -0.00006
 143 4   Cl 1S          0.00044  -0.00239   0.00033   0.00113   0.17361
 144        2S         -0.00184   0.00846  -0.00110  -0.00380  -0.58606
 145        3S         -0.00041   0.00014   0.00003   0.00015   0.01735
 146        4S         -0.00012   0.00047  -0.00008  -0.00029  -0.04544
 147        5S          0.00055  -0.00104   0.00001   0.00001   0.00098
 148        6S          0.00067  -0.00196   0.00009  -0.00002   0.00161
 149        7PX         0.00205   0.00288  -0.69246  -0.69194   0.00545
 150        7PY        -0.39318  -0.34596  -0.00806  -0.00990  -0.30893
 151        7PZ        -0.57068  -0.60010   0.00307   0.00231   0.21450
 152        8PX        -0.00005  -0.00006   0.01495   0.01340  -0.00010
 153        8PY         0.00989   0.00733   0.00019   0.00019   0.00601
 154        8PZ         0.01393   0.01388  -0.00008  -0.00003  -0.00434
 155        9PX         0.00011   0.00015  -0.03665  -0.03711   0.00030
 156        9PY        -0.02044  -0.01802  -0.00043  -0.00054  -0.01756
 157        9PZ        -0.02981  -0.03147   0.00017   0.00013   0.01222
 158       10PX         0.00000  -0.00004   0.00381   0.00332  -0.00004
 159       10PY         0.00309   0.00150   0.00003   0.00000   0.00170
 160       10PZ         0.00500   0.00198   0.00004  -0.00009  -0.00133
 161       11PX         0.00000  -0.00001   0.00056   0.00081   0.00000
 162       11PY         0.00040   0.00043   0.00001   0.00000   0.00015
 163       11PZ         0.00064   0.00026   0.00001  -0.00001   0.00009
 164       12D 0       -0.00043  -0.00025   0.00000   0.00000   0.00005
 165       12D+1        0.00000   0.00000  -0.00017  -0.00015   0.00000
 166       12D-1        0.00022   0.00013   0.00000   0.00000   0.00013
 167       12D+2       -0.00024  -0.00013  -0.00001   0.00000   0.00005
 168       12D-2        0.00000   0.00000   0.00029   0.00015   0.00000
 169       13D 0        0.00193   0.00106   0.00000   0.00000  -0.00023
 170       13D+1        0.00002   0.00000   0.00072   0.00060  -0.00001
 171       13D-1       -0.00080  -0.00102   0.00002   0.00001   0.00064
 172       13D+2        0.00085   0.00063   0.00002   0.00003   0.00039
 173       13D-2        0.00001   0.00001  -0.00107  -0.00097   0.00001
 174       14D 0        0.00006  -0.00076   0.00002  -0.00003   0.00005
 175       14D+1        0.00001  -0.00001  -0.00043   0.00005   0.00000
 176       14D-1       -0.00006   0.00020  -0.00001   0.00001   0.00028
 177       14D+2       -0.00008  -0.00045   0.00000  -0.00002  -0.00014
 178       14D-2        0.00000   0.00000   0.00025   0.00010   0.00001
 179       15F 0        0.00000   0.00001   0.00000   0.00000  -0.00002
 180       15F+1        0.00000   0.00000   0.00007  -0.00004   0.00000
 181       15F-1        0.00001  -0.00003   0.00000   0.00000   0.00002
 182       15F+2       -0.00003   0.00002   0.00000   0.00000   0.00001
 183       15F-2        0.00000   0.00000   0.00000   0.00001   0.00000
 184       15F+3        0.00000   0.00000   0.00001  -0.00001   0.00000
 185       15F-3        0.00002  -0.00004   0.00000   0.00000  -0.00001
 186       16F 0        0.00039  -0.00013   0.00001  -0.00001   0.00014
 187       16F+1        0.00001   0.00000  -0.00014   0.00016   0.00000
 188       16F-1       -0.00090  -0.00050   0.00000   0.00001   0.00016
 189       16F+2        0.00006  -0.00029   0.00001   0.00001   0.00022
 190       16F-2       -0.00001   0.00000  -0.00036  -0.00033   0.00001
 191       16F+3        0.00001   0.00000  -0.00032  -0.00028   0.00001
 192       16F-3       -0.00019  -0.00018  -0.00001  -0.00001  -0.00006
                           6         7         8         9        10
     Eigenvalues --     2.00003   2.00001   2.00001   2.00001   2.00000
   1 1   O  1S          0.01415   0.00000   0.25893   0.88077   0.34097
   2        2S         -0.00043   0.00000  -0.00566  -0.01618  -0.00557
   3        3S          0.00056   0.00000   0.01082   0.03746   0.01491
   4        4S          0.00066   0.00000  -0.00047  -0.00328  -0.00109
   5        5S          0.00031   0.00000   0.00181  -0.00099  -0.00167
   6        6PX        -0.00001   0.00000   0.00002   0.00004  -0.00002
   7        6PY         0.00000  -0.00079   0.00000   0.00000   0.00000
   8        6PZ        -0.00009   0.00000  -0.00177  -0.00373   0.00045
   9        7PX        -0.00002   0.00000   0.00000   0.00001  -0.00004
  10        7PY         0.00000  -0.00135   0.00000   0.00000   0.00000
  11        7PZ        -0.00022   0.00000  -0.00129  -0.00077   0.00313
  12        8PX         0.00000   0.00000   0.00001   0.00001   0.00003
  13        8PY         0.00000  -0.00415   0.00000   0.00000   0.00000
  14        8PZ        -0.00078   0.00000  -0.00207  -0.00260   0.00278
  15        9PX         0.00003   0.00000   0.00003  -0.00002   0.00002
  16        9PY         0.00000  -0.00153   0.00000   0.00000   0.00000
  17        9PZ         0.00017   0.00000  -0.00028  -0.00032   0.00086
  18       10D 0        0.00002   0.00000   0.00010   0.00021   0.00002
  19       10D+1        0.00000   0.00000   0.00000   0.00000   0.00000
  20       10D-1        0.00000  -0.00004   0.00000   0.00000   0.00000
  21       10D+2        0.00000   0.00000   0.00000  -0.00007   0.00000
  22       10D-2        0.00000   0.00000   0.00000   0.00000   0.00000
  23       11D 0        0.00008   0.00000   0.00009  -0.00036  -0.00104
  24       11D+1        0.00000   0.00000   0.00000   0.00001   0.00001
  25       11D-1        0.00000   0.00011   0.00000   0.00000   0.00000
  26       11D+2       -0.00002   0.00000  -0.00017  -0.00004  -0.00012
  27       11D-2        0.00000  -0.00001   0.00000   0.00000   0.00000
  28       12D 0        0.00007   0.00000   0.00003   0.00074  -0.00096
  29       12D+1       -0.00001   0.00000  -0.00001   0.00000  -0.00001
  30       12D-1        0.00000   0.00105   0.00000   0.00000   0.00000
  31       12D+2       -0.00022   0.00000  -0.00062   0.00016  -0.00003
  32       12D-2        0.00000  -0.00004   0.00000   0.00000   0.00000
  33       13F 0        0.00001   0.00000   0.00009   0.00006  -0.00013
  34       13F+1        0.00000   0.00000   0.00000   0.00000   0.00000
  35       13F-1        0.00000   0.00006   0.00000   0.00000   0.00000
  36       13F+2       -0.00001   0.00000  -0.00002  -0.00002  -0.00002
  37       13F-2        0.00000   0.00000   0.00000   0.00000   0.00000
  38       13F+3        0.00000   0.00000   0.00000   0.00000   0.00000
  39       13F-3        0.00000   0.00000   0.00000   0.00000   0.00000
  40       14F 0        0.00006   0.00000   0.00014  -0.00007   0.00053
  41       14F+1        0.00000   0.00000   0.00001   0.00000   0.00000
  42       14F-1        0.00000  -0.00004   0.00000   0.00000   0.00000
  43       14F+2        0.00009   0.00000   0.00029  -0.00010   0.00018
  44       14F-2        0.00000   0.00002   0.00000   0.00000   0.00000
  45       14F+3        0.00000   0.00000   0.00000   0.00000   0.00000
  46       14F-3        0.00000  -0.00007   0.00000   0.00000   0.00000
  47 2   C  1S         -0.14556   0.00000  -0.61542  -0.10428   0.74240
  48        2S          0.00292   0.00000   0.01071   0.00089  -0.00666
  49        3S         -0.00533   0.00000  -0.02398  -0.00506   0.03219
  50        4S         -0.00632   0.00000  -0.00581   0.00573  -0.01223
  51        5S         -0.00041   0.00000  -0.00251   0.00149  -0.00228
  52        6PX         0.00001   0.00000  -0.00001   0.00000   0.00000
  53        6PY         0.00000   0.00245   0.00000   0.00000   0.00000
  54        6PZ        -0.00038   0.00000  -0.00061   0.00096  -0.00197
  55        7PX         0.00002   0.00000   0.00002  -0.00001  -0.00002
  56        7PY         0.00000  -0.00036   0.00000   0.00000   0.00000
  57        7PZ        -0.00071   0.00000  -0.00134   0.00086   0.00501
  58        8PX         0.00004   0.00000   0.00005  -0.00004   0.00004
  59        8PY         0.00000  -0.00009   0.00000   0.00000   0.00000
  60        8PZ         0.00244   0.00000   0.00173  -0.00104   0.00412
  61        9PX        -0.00003   0.00000  -0.00002   0.00001  -0.00002
  62        9PY         0.00000   0.00141   0.00000   0.00000   0.00000
  63        9PZ        -0.00028   0.00000   0.00012   0.00017   0.00017
  64       10D 0       -0.00007   0.00000  -0.00025   0.00008   0.00070
  65       10D+1        0.00000   0.00000   0.00000   0.00000  -0.00001
  66       10D-1        0.00000  -0.00012   0.00000   0.00000   0.00000
  67       10D+2        0.00007   0.00000   0.00012   0.00003  -0.00016
  68       10D-2        0.00000   0.00000   0.00000   0.00000   0.00000
  69       11D 0       -0.00023   0.00000  -0.00001   0.00094   0.00102
  70       11D+1       -0.00001   0.00000  -0.00001   0.00000  -0.00006
  71       11D-1        0.00000   0.00275   0.00000   0.00000   0.00000
  72       11D+2        0.00090   0.00000   0.00056  -0.00112   0.00329
  73       11D-2        0.00000   0.00002   0.00000   0.00000   0.00000
  74       12D 0       -0.00013   0.00000  -0.00044  -0.00006  -0.00066
  75       12D+1       -0.00004   0.00000  -0.00003   0.00003  -0.00003
  76       12D-1        0.00000   0.00258   0.00000   0.00000   0.00000
  77       12D+2        0.00078   0.00000   0.00106  -0.00085   0.00113
  78       12D-2        0.00000   0.00001   0.00000   0.00000   0.00000
  79       13F 0       -0.00015   0.00000  -0.00029  -0.00014   0.00038
  80       13F+1        0.00000   0.00000   0.00000   0.00001  -0.00001
  81       13F-1        0.00000  -0.00007   0.00000   0.00000   0.00000
  82       13F+2       -0.00002   0.00000   0.00010  -0.00007  -0.00008
  83       13F-2        0.00000   0.00000   0.00000   0.00000   0.00000
  84       13F+3        0.00000   0.00000   0.00000   0.00000   0.00000
  85       13F-3        0.00000  -0.00003   0.00000   0.00000   0.00000
  86       14F 0        0.00022   0.00000   0.00108   0.00088  -0.00091
  87       14F+1        0.00001   0.00000   0.00001  -0.00002  -0.00001
  88       14F-1        0.00000   0.00154   0.00000   0.00000   0.00000
  89       14F+2       -0.00006   0.00000   0.00060   0.00035  -0.00098
  90       14F-2        0.00000   0.00001   0.00000   0.00000   0.00000
  91       14F+3        0.00000   0.00000  -0.00001   0.00001  -0.00002
  92       14F-3        0.00000   0.00079   0.00000   0.00000   0.00000
  93 3   Cl 1S         -0.17727  -0.11147   0.09137  -0.03786   0.03577
  94        2S          0.59805   0.37813  -0.31181   0.12915  -0.12210
  95        3S         -0.01784  -0.00663   0.00470  -0.00157   0.00080
  96        4S          0.04654   0.03146  -0.02542   0.01088  -0.01094
  97        5S         -0.00188  -0.00639   0.00431  -0.00354   0.00810
  98        6S         -0.00021   0.00279   0.00089  -0.00077   0.00224
  99        7PX        -0.00822   0.00641  -0.00468   0.00260  -0.00369
 100        7PY        -0.29997   0.47638  -0.34823   0.22257  -0.30881
 101        7PZ        -0.16340   0.32709  -0.19670   0.13901  -0.18370
 102        8PX         0.00014  -0.00011   0.00006  -0.00004   0.00005
 103        8PY         0.00528  -0.00842   0.00516  -0.00337   0.00516
 104        8PZ         0.00286  -0.00623   0.00295  -0.00216   0.00363
 105        9PX        -0.00046   0.00039  -0.00028   0.00016  -0.00023
 106        9PY        -0.01707   0.02907  -0.02122   0.01385  -0.01980
 107        9PZ        -0.00935   0.02012  -0.01201   0.00866  -0.01194
 108       10PX         0.00002  -0.00001  -0.00001   0.00001   0.00001
 109       10PY         0.00225  -0.00007   0.00107  -0.00094   0.00308
 110       10PZ         0.00119  -0.00053   0.00041  -0.00097   0.00219
 111       11PX         0.00001   0.00000   0.00001   0.00000   0.00001
 112       11PY         0.00003   0.00010   0.00006  -0.00005   0.00020
 113       11PZ         0.00012   0.00025   0.00004  -0.00016   0.00019
 114       12D 0       -0.00005   0.00001   0.00000   0.00002   0.00000
 115       12D+1        0.00000   0.00001   0.00000   0.00000   0.00000
 116       12D-1        0.00017   0.00042  -0.00025   0.00024  -0.00035
 117       12D+2       -0.00009  -0.00032   0.00023  -0.00014   0.00022
 118       12D-2        0.00000   0.00001   0.00000   0.00000   0.00000
 119       13D 0       -0.00007  -0.00047  -0.00011   0.00008   0.00006
 120       13D+1        0.00000  -0.00003   0.00000  -0.00001   0.00001
 121       13D-1        0.00038  -0.00224   0.00089  -0.00090   0.00211
 122       13D+2       -0.00047   0.00122  -0.00105   0.00065  -0.00132
 123       13D-2        0.00001  -0.00003   0.00001  -0.00001   0.00002
 124       14D 0       -0.00008  -0.00010  -0.00005  -0.00008   0.00008
 125       14D+1        0.00000   0.00001   0.00000   0.00000   0.00000
 126       14D-1        0.00030   0.00013  -0.00026  -0.00015   0.00065
 127       14D+2       -0.00034  -0.00068  -0.00002   0.00007  -0.00052
 128       14D-2        0.00000   0.00000  -0.00001   0.00001   0.00000
 129       15F 0        0.00000  -0.00001  -0.00003  -0.00002   0.00002
 130       15F+1        0.00000   0.00000   0.00000   0.00000   0.00000
 131       15F-1        0.00000  -0.00007   0.00001   0.00004  -0.00002
 132       15F+2        0.00000   0.00004  -0.00003  -0.00004  -0.00001
 133       15F-2        0.00000   0.00000   0.00000   0.00000   0.00000
 134       15F+3        0.00000   0.00000   0.00000   0.00000   0.00000
 135       15F-3       -0.00003   0.00002  -0.00007   0.00003  -0.00005
 136       16F 0       -0.00004   0.00029   0.00006   0.00014  -0.00034
 137       16F+1        0.00000   0.00000   0.00000   0.00000   0.00000
 138       16F-1        0.00001  -0.00047   0.00000  -0.00013   0.00038
 139       16F+2       -0.00016   0.00059  -0.00018   0.00029  -0.00060
 140       16F-2        0.00000  -0.00001   0.00000  -0.00001   0.00001
 141       16F+3        0.00000   0.00001   0.00000   0.00000  -0.00001
 142       16F-3       -0.00011   0.00017  -0.00021   0.00008  -0.00024
 143 4   Cl 1S         -0.17727   0.11147   0.09137  -0.03786   0.03577
 144        2S          0.59805  -0.37813  -0.31181   0.12915  -0.12210
 145        3S         -0.01784   0.00663   0.00470  -0.00157   0.00080
 146        4S          0.04654  -0.03146  -0.02542   0.01088  -0.01094
 147        5S         -0.00188   0.00639   0.00431  -0.00354   0.00810
 148        6S         -0.00021  -0.00279   0.00089  -0.00077   0.00224
 149        7PX        -0.00822  -0.00641  -0.00468   0.00260  -0.00369
 150        7PY         0.29997   0.47638   0.34823  -0.22257   0.30881
 151        7PZ        -0.16340  -0.32709  -0.19670   0.13901  -0.18370
 152        8PX         0.00014   0.00011   0.00006  -0.00004   0.00005
 153        8PY        -0.00528  -0.00842  -0.00516   0.00337  -0.00516
 154        8PZ         0.00286   0.00623   0.00295  -0.00216   0.00363
 155        9PX        -0.00046  -0.00039  -0.00028   0.00016  -0.00023
 156        9PY         0.01707   0.02907   0.02122  -0.01385   0.01980
 157        9PZ        -0.00935  -0.02012  -0.01201   0.00866  -0.01194
 158       10PX         0.00002   0.00001  -0.00001   0.00001   0.00001
 159       10PY        -0.00225  -0.00007  -0.00107   0.00094  -0.00308
 160       10PZ         0.00119   0.00053   0.00041  -0.00097   0.00219
 161       11PX         0.00001   0.00000   0.00001   0.00000   0.00001
 162       11PY        -0.00003   0.00010  -0.00006   0.00005  -0.00020
 163       11PZ         0.00012  -0.00025   0.00004  -0.00016   0.00019
 164       12D 0       -0.00005  -0.00001   0.00000   0.00002   0.00000
 165       12D+1        0.00000  -0.00001   0.00000   0.00000   0.00000
 166       12D-1       -0.00017   0.00042   0.00025  -0.00024   0.00035
 167       12D+2       -0.00009   0.00032   0.00023  -0.00014   0.00022
 168       12D-2        0.00000   0.00001   0.00000   0.00000   0.00000
 169       13D 0       -0.00007   0.00047  -0.00011   0.00008   0.00006
 170       13D+1        0.00000   0.00003   0.00000  -0.00001   0.00001
 171       13D-1       -0.00038  -0.00224  -0.00089   0.00090  -0.00211
 172       13D+2       -0.00047  -0.00122  -0.00105   0.00065  -0.00132
 173       13D-2       -0.00001  -0.00003  -0.00001   0.00001  -0.00002
 174       14D 0       -0.00008   0.00010  -0.00005  -0.00008   0.00008
 175       14D+1        0.00000  -0.00001   0.00000   0.00000   0.00000
 176       14D-1       -0.00030   0.00013   0.00026   0.00015  -0.00065
 177       14D+2       -0.00034   0.00068  -0.00002   0.00007  -0.00052
 178       14D-2        0.00000   0.00000   0.00001  -0.00001   0.00000
 179       15F 0        0.00000   0.00001  -0.00003  -0.00002   0.00002
 180       15F+1        0.00000   0.00000   0.00000   0.00000   0.00000
 181       15F-1        0.00000  -0.00007  -0.00001  -0.00004   0.00002
 182       15F+2        0.00000  -0.00004  -0.00003  -0.00004  -0.00001
 183       15F-2        0.00000   0.00000   0.00000   0.00000   0.00000
 184       15F+3        0.00000   0.00000   0.00000   0.00000   0.00000
 185       15F-3        0.00003   0.00002   0.00007  -0.00003   0.00005
 186       16F 0       -0.00004  -0.00029   0.00006   0.00014  -0.00034
 187       16F+1        0.00000   0.00000   0.00000   0.00000   0.00000
 188       16F-1       -0.00001  -0.00047   0.00000   0.00013  -0.00038
 189       16F+2       -0.00016  -0.00059  -0.00018   0.00029  -0.00060
 190       16F-2        0.00000  -0.00001   0.00000   0.00001  -0.00001
 191       16F+3        0.00000  -0.00001   0.00000   0.00000  -0.00001
 192       16F-3        0.00011   0.00017   0.00021  -0.00008   0.00024
                          11        12        13        14        15
     Eigenvalues --     2.00000   2.00000   1.98120   1.97616   1.97460
   1 1   O  1S          0.00003   0.00000  -0.18605  -0.06286   0.00000
   2        2S          0.00001   0.00000   0.48175   0.17008   0.00000
   3        3S          0.00000   0.00000   0.13549   0.04887   0.00000
   4        4S          0.00003   0.00000   0.29382   0.13440   0.00000
   5        5S          0.00004   0.00000   0.01959   0.02324   0.00000
   6        6PX         0.00000   0.00000  -0.00001  -0.00007   0.00000
   7        6PY         0.00000   0.00000   0.00000   0.00000   0.04395
   8        6PZ         0.00000   0.00000  -0.00872   0.02885   0.00000
   9        7PX         0.00000   0.00000   0.00004  -0.00005   0.00000
  10        7PY         0.00000   0.00001   0.00000   0.00000   0.05471
  11        7PZ         0.00000   0.00000  -0.01518   0.03064   0.00000
  12        8PX         0.00000   0.00000  -0.00035  -0.00013   0.00000
  13        8PY         0.00000   0.00006   0.00000   0.00000   0.04004
  14        8PZ         0.00003   0.00000   0.04928   0.02589   0.00000
  15        9PX         0.00000   0.00000   0.00000  -0.00009   0.00000
  16        9PY         0.00000   0.00001   0.00000   0.00000   0.00092
  17        9PZ         0.00000   0.00000   0.01375  -0.00042   0.00000
  18       10D 0        0.00000   0.00000   0.00496   0.00003   0.00000
  19       10D+1        0.00000   0.00000  -0.00006  -0.00002   0.00000
  20       10D-1        0.00000   0.00000   0.00000   0.00000  -0.00210
  21       10D+2        0.00000   0.00000  -0.00001  -0.00002   0.00000
  22       10D-2        0.00000   0.00000   0.00000   0.00000   0.00002
  23       11D 0       -0.00001   0.00000   0.01088   0.00141   0.00000
  24       11D+1        0.00000   0.00000  -0.00016  -0.00003   0.00000
  25       11D-1        0.00000   0.00000   0.00000   0.00000  -0.00535
  26       11D+2        0.00000   0.00000   0.00026   0.00100   0.00000
  27       11D-2        0.00000   0.00000   0.00000   0.00000   0.00002
  28       12D 0       -0.00002   0.00000  -0.01505  -0.00336   0.00000
  29       12D+1        0.00000   0.00000   0.00019   0.00008   0.00000
  30       12D-1        0.00000  -0.00002   0.00000   0.00000  -0.00401
  31       12D+2        0.00000   0.00000   0.00142   0.00135   0.00000
  32       12D-2        0.00000   0.00000   0.00000   0.00000  -0.00008
  33       13F 0        0.00000   0.00000  -0.00275  -0.00032   0.00000
  34       13F+1        0.00000   0.00000   0.00005   0.00001   0.00000
  35       13F-1        0.00000   0.00000   0.00000   0.00000   0.00147
  36       13F+2        0.00000   0.00000   0.00021  -0.00005   0.00000
  37       13F-2        0.00000   0.00000   0.00000   0.00000  -0.00002
  38       13F+3        0.00000   0.00000   0.00000   0.00000   0.00000
  39       13F-3        0.00000   0.00000   0.00000   0.00000   0.00008
  40       14F 0        0.00000   0.00000  -0.00008  -0.00057   0.00000
  41       14F+1        0.00000   0.00000   0.00001  -0.00002   0.00000
  42       14F-1        0.00000   0.00000   0.00000   0.00000   0.00015
  43       14F+2        0.00000   0.00000  -0.00069  -0.00104   0.00000
  44       14F-2        0.00000   0.00000   0.00000   0.00000   0.00004
  45       14F+3        0.00000   0.00000   0.00001   0.00003   0.00000
  46       14F-3        0.00000   0.00000   0.00000   0.00000   0.00044
  47 2   C  1S         -0.00030   0.00000  -0.08434   0.04576   0.00000
  48        2S          0.00003   0.00000   0.19422  -0.12665   0.00000
  49        3S          0.00002   0.00000   0.04626  -0.02636   0.00000
  50        4S         -0.00013   0.00000   0.00263  -0.05551   0.00000
  51        5S         -0.00005   0.00000  -0.00447  -0.02446   0.00000
  52        6PX         0.00000   0.00000  -0.00079   0.00021   0.00000
  53        6PY         0.00000  -0.00001   0.00000   0.00000   0.07153
  54        6PZ        -0.00001   0.00000   0.06359   0.05729   0.00000
  55        7PX         0.00000   0.00000  -0.00085   0.00041   0.00000
  56        7PY         0.00000   0.00004   0.00000   0.00000   0.09692
  57        7PZ         0.00005   0.00000   0.04904   0.06670   0.00000
  58        8PX         0.00000   0.00000   0.00014   0.00005   0.00000
  59        8PY         0.00000  -0.00009   0.00000   0.00000  -0.00735
  60        8PZ        -0.00001   0.00000  -0.01845  -0.00345   0.00000
  61        9PX         0.00000   0.00000  -0.00005   0.00013   0.00000
  62        9PY         0.00000  -0.00001   0.00000   0.00000   0.00603
  63        9PZ         0.00000   0.00000  -0.00732   0.00329   0.00000
  64       10D 0        0.00000   0.00000   0.01556   0.00259   0.00000
  65       10D+1        0.00000   0.00000  -0.00022  -0.00009   0.00000
  66       10D-1        0.00000   0.00000   0.00000   0.00000  -0.00592
  67       10D+2        0.00000   0.00000  -0.00266   0.00660   0.00000
  68       10D-2        0.00000   0.00000   0.00000   0.00000  -0.00011
  69       11D 0       -0.00001   0.00000   0.00615  -0.00225   0.00000
  70       11D+1        0.00000   0.00000  -0.00013  -0.00008   0.00000
  71       11D-1        0.00000  -0.00007   0.00000   0.00000  -0.01929
  72       11D+2        0.00005   0.00000  -0.00326   0.01161   0.00000
  73       11D-2        0.00000   0.00000   0.00000   0.00000  -0.00017
  74       12D 0       -0.00003   0.00000  -0.02000  -0.00787   0.00000
  75       12D+1        0.00000   0.00000   0.00016   0.00018   0.00000
  76       12D-1        0.00000  -0.00001   0.00000   0.00000   0.00451
  77       12D+2        0.00001   0.00000  -0.00112  -0.00272   0.00000
  78       12D-2        0.00000   0.00000   0.00000   0.00000   0.00020
  79       13F 0        0.00000   0.00000   0.00592  -0.00204   0.00000
  80       13F+1        0.00000   0.00000  -0.00011   0.00004   0.00000
  81       13F-1        0.00000   0.00000   0.00000   0.00000   0.00231
  82       13F+2       -0.00001   0.00000   0.00258  -0.00425   0.00000
  83       13F-2        0.00000   0.00000   0.00000   0.00000   0.00002
  84       13F+3        0.00000   0.00000   0.00003  -0.00004   0.00000
  85       13F-3        0.00000  -0.00001   0.00000   0.00000  -0.00265
  86       14F 0       -0.00003   0.00000  -0.00661  -0.00482   0.00000
  87       14F+1        0.00000   0.00000   0.00009   0.00001   0.00000
  88       14F-1        0.00000  -0.00001   0.00000   0.00000   0.00139
  89       14F+2       -0.00003   0.00000  -0.00283  -0.00584   0.00000
  90       14F-2        0.00000   0.00000   0.00000   0.00000   0.00019
  91       14F+3        0.00000   0.00000   0.00002   0.00001   0.00000
  92       14F-3        0.00000  -0.00001   0.00000   0.00000   0.00003
  93 3   Cl 1S          0.70628   0.70395   0.01119  -0.04764  -0.05216
  94        2S          0.00701   0.00715  -0.04060   0.17866   0.19510
  95        3S          0.00011   0.00012   0.09174  -0.38022  -0.41803
  96        4S          0.00015   0.00016   0.01037  -0.04676  -0.05250
  97        5S          0.00001  -0.00006   0.04986  -0.22573  -0.25700
  98        6S          0.00001  -0.00007  -0.00311   0.01089   0.00587
  99        7PX        -0.00001   0.00000  -0.00006   0.00010   0.00006
 100        7PY        -0.00085  -0.00043  -0.00743   0.01510   0.00077
 101        7PZ        -0.00045  -0.00034  -0.00922   0.00159   0.00820
 102        8PX         0.00000   0.00000   0.00011  -0.00005  -0.00007
 103        8PY         0.00007   0.00006   0.01290  -0.02045   0.01570
 104        8PZ         0.00005   0.00004   0.02309   0.01016  -0.01107
 105        9PX         0.00000   0.00000   0.00004  -0.00004   0.00001
 106        9PY        -0.00008  -0.00006   0.00600  -0.00962   0.00646
 107        9PZ        -0.00005  -0.00004   0.00995   0.00375  -0.00516
 108       10PX         0.00000   0.00000   0.00004   0.00010   0.00004
 109       10PY        -0.00001  -0.00007   0.00311   0.00222   0.01604
 110       10PZ        -0.00002  -0.00004   0.00275   0.00960  -0.00091
 111       11PX         0.00000   0.00000   0.00000   0.00000   0.00006
 112       11PY         0.00000  -0.00001  -0.00125   0.00379   0.00221
 113       11PZ         0.00000   0.00000   0.00097   0.00167   0.00263
 114       12D 0        0.00000   0.00000   0.00035   0.00145  -0.00093
 115       12D+1        0.00000   0.00000   0.00001  -0.00004  -0.00004
 116       12D-1        0.00000   0.00001   0.00347  -0.00585  -0.00592
 117       12D+2        0.00000   0.00000  -0.00267   0.00548   0.00302
 118       12D-2        0.00000   0.00000   0.00003  -0.00006  -0.00005
 119       13D 0        0.00000   0.00000  -0.00047   0.00213  -0.00245
 120       13D+1        0.00000   0.00000   0.00005  -0.00002  -0.00008
 121       13D-1        0.00003   0.00002   0.00379  -0.00509  -0.00488
 122       13D+2       -0.00001  -0.00001  -0.00140   0.00601   0.00134
 123       13D-2        0.00000   0.00000   0.00001  -0.00004  -0.00009
 124       14D 0        0.00000   0.00000  -0.00001  -0.00054  -0.00068
 125       14D+1        0.00000   0.00000  -0.00006  -0.00001   0.00005
 126       14D-1       -0.00001  -0.00002  -0.00197   0.00143   0.00190
 127       14D+2        0.00001   0.00002  -0.00091  -0.00194  -0.00294
 128       14D-2        0.00000   0.00000   0.00002   0.00008   0.00002
 129       15F 0        0.00000   0.00000  -0.00033   0.00140   0.00086
 130       15F+1        0.00000   0.00000   0.00000   0.00000  -0.00002
 131       15F-1        0.00000   0.00000   0.00040  -0.00022  -0.00163
 132       15F+2       -0.00001   0.00000  -0.00077   0.00221   0.00221
 133       15F-2        0.00000   0.00000   0.00001  -0.00003  -0.00003
 134       15F+3        0.00000   0.00000  -0.00001   0.00003   0.00002
 135       15F-3        0.00000   0.00000  -0.00059   0.00181   0.00084
 136       16F 0        0.00000   0.00000  -0.00044   0.00011  -0.00048
 137       16F+1        0.00000   0.00000   0.00000  -0.00001   0.00001
 138       16F-1        0.00000   0.00000  -0.00026   0.00024  -0.00025
 139       16F+2        0.00000   0.00000   0.00016   0.00022  -0.00100
 140       16F-2        0.00000   0.00000   0.00000   0.00000  -0.00001
 141       16F+3        0.00000   0.00000   0.00002  -0.00001   0.00001
 142       16F-3        0.00000   0.00000   0.00095   0.00008  -0.00072
 143 4   Cl 1S          0.70400  -0.70624   0.01119  -0.04764   0.05216
 144        2S          0.00699  -0.00717  -0.04060   0.17866  -0.19510
 145        3S          0.00011  -0.00012   0.09174  -0.38022   0.41803
 146        4S          0.00015  -0.00016   0.01037  -0.04676   0.05250
 147        5S          0.00001   0.00006   0.04986  -0.22573   0.25700
 148        6S          0.00001   0.00007  -0.00311   0.01089  -0.00587
 149        7PX        -0.00001   0.00000  -0.00006   0.00010  -0.00006
 150        7PY         0.00084  -0.00043   0.00743  -0.01510   0.00077
 151        7PZ        -0.00045   0.00034  -0.00922   0.00159  -0.00820
 152        8PX         0.00000   0.00000   0.00011  -0.00005   0.00007
 153        8PY        -0.00007   0.00006  -0.01290   0.02045   0.01570
 154        8PZ         0.00005  -0.00004   0.02309   0.01016   0.01107
 155        9PX         0.00000   0.00000   0.00004  -0.00004  -0.00001
 156        9PY         0.00008  -0.00006  -0.00600   0.00962   0.00646
 157        9PZ        -0.00005   0.00004   0.00995   0.00375   0.00516
 158       10PX         0.00000   0.00000   0.00004   0.00010  -0.00004
 159       10PY         0.00001  -0.00007  -0.00311  -0.00222   0.01604
 160       10PZ        -0.00002   0.00004   0.00275   0.00960   0.00091
 161       11PX         0.00000   0.00000   0.00000   0.00000  -0.00006
 162       11PY         0.00000  -0.00001   0.00125  -0.00379   0.00221
 163       11PZ         0.00000   0.00000   0.00097   0.00167  -0.00263
 164       12D 0        0.00000   0.00000   0.00035   0.00145   0.00093
 165       12D+1        0.00000   0.00000   0.00001  -0.00004   0.00004
 166       12D-1        0.00000   0.00001  -0.00347   0.00585  -0.00592
 167       12D+2        0.00000   0.00000  -0.00267   0.00548  -0.00302
 168       12D-2        0.00000   0.00000  -0.00003   0.00006  -0.00005
 169       13D 0        0.00000   0.00000  -0.00047   0.00213   0.00245
 170       13D+1        0.00000   0.00000   0.00005  -0.00002   0.00008
 171       13D-1       -0.00003   0.00002  -0.00379   0.00509  -0.00488
 172       13D+2       -0.00001   0.00001  -0.00140   0.00601  -0.00134
 173       13D-2        0.00000   0.00000  -0.00001   0.00004  -0.00009
 174       14D 0        0.00000   0.00000  -0.00001  -0.00054   0.00068
 175       14D+1        0.00000   0.00000  -0.00006  -0.00001  -0.00005
 176       14D-1        0.00001  -0.00002   0.00197  -0.00143   0.00190
 177       14D+2        0.00001  -0.00002  -0.00091  -0.00194   0.00294
 178       14D-2        0.00000   0.00000  -0.00002  -0.00008   0.00002
 179       15F 0        0.00000   0.00000  -0.00033   0.00140  -0.00086
 180       15F+1        0.00000   0.00000   0.00000   0.00000   0.00002
 181       15F-1        0.00000   0.00000  -0.00040   0.00022  -0.00163
 182       15F+2       -0.00001   0.00000  -0.00077   0.00221  -0.00221
 183       15F-2        0.00000   0.00000  -0.00001   0.00003  -0.00003
 184       15F+3        0.00000   0.00000  -0.00001   0.00003  -0.00002
 185       15F-3        0.00000   0.00000   0.00059  -0.00181   0.00084
 186       16F 0        0.00000   0.00000  -0.00044   0.00011   0.00048
 187       16F+1        0.00000   0.00000   0.00000  -0.00001  -0.00001
 188       16F-1        0.00000   0.00000   0.00026  -0.00024  -0.00025
 189       16F+2        0.00000   0.00000   0.00016   0.00022   0.00100
 190       16F-2        0.00000   0.00000   0.00000   0.00000  -0.00001
 191       16F+3        0.00000   0.00000   0.00002  -0.00001  -0.00001
 192       16F-3        0.00000   0.00000  -0.00095  -0.00008  -0.00072
                          16        17        18        19        20
     Eigenvalues --     1.96277   1.95785   1.95159   1.94905   1.94743
   1 1   O  1S          0.03971   0.00000  -0.00845  -0.00081   0.00000
   2        2S         -0.12878   0.00000   0.02179   0.00212   0.00000
   3        3S         -0.04226   0.00000   0.00680   0.00059   0.00000
   4        4S         -0.23869   0.00000   0.02418   0.00031   0.00000
   5        5S         -0.05962   0.00000   0.02429   0.00024   0.00000
   6        6PX         0.00117   0.00000  -0.00025   0.02760   0.00000
   7        6PY         0.00000   0.29832   0.00000   0.00000   0.11160
   8        6PZ        -0.29530   0.00000  -0.00757  -0.00337   0.00000
   9        7PX         0.00131   0.00000  -0.00027   0.03494   0.00000
  10        7PY         0.00000   0.37047   0.00000   0.00000   0.13641
  11        7PZ        -0.34966   0.00000  -0.01061  -0.00409   0.00000
  12        8PX         0.00007   0.00000   0.00012   0.01728   0.00000
  13        8PY         0.00000   0.27133   0.00000   0.00000   0.09502
  14        8PZ        -0.15254   0.00000  -0.00030  -0.00114   0.00000
  15        9PX        -0.00016   0.00000   0.00028  -0.01196   0.00000
  16        9PY         0.00000   0.03766   0.00000   0.00000   0.01517
  17        9PZ         0.00122   0.00000   0.00063  -0.00001   0.00000
  18       10D 0        0.01320   0.00000   0.00021   0.00012   0.00000
  19       10D+1       -0.00015   0.00000   0.00003  -0.00313   0.00000
  20       10D-1        0.00000  -0.00900   0.00000   0.00000  -0.00203
  21       10D+2       -0.00002   0.00000   0.00058   0.00003   0.00000
  22       10D-2        0.00000   0.00008   0.00000   0.00000   0.00005
  23       11D 0        0.02658   0.00000   0.00139   0.00021   0.00000
  24       11D+1       -0.00025   0.00000  -0.00001  -0.00875   0.00000
  25       11D-1        0.00000  -0.02621   0.00000   0.00000  -0.00259
  26       11D+2        0.00116   0.00000   0.00047   0.00010   0.00000
  27       11D-2        0.00000   0.00022   0.00000   0.00000   0.00015
  28       12D 0       -0.00324   0.00000  -0.00116  -0.00057   0.00000
  29       12D+1        0.00016   0.00000   0.00002  -0.00698   0.00000
  30       12D-1        0.00000  -0.01713   0.00000   0.00000  -0.00141
  31       12D+2        0.00218   0.00000   0.00223   0.00002   0.00000
  32       12D-2        0.00000   0.00003   0.00000   0.00000   0.00022
  33       13F 0       -0.00481   0.00000  -0.00004  -0.00003   0.00000
  34       13F+1        0.00007   0.00000  -0.00001   0.00166   0.00000
  35       13F-1        0.00000   0.00562   0.00000   0.00000   0.00095
  36       13F+2       -0.00068   0.00000  -0.00016  -0.00004   0.00000
  37       13F-2        0.00000  -0.00008   0.00000   0.00000  -0.00004
  38       13F+3        0.00000   0.00000   0.00000  -0.00001   0.00000
  39       13F-3        0.00000   0.00091   0.00000   0.00000   0.00046
  40       14F 0       -0.00410   0.00000  -0.00024  -0.00003   0.00000
  41       14F+1        0.00005   0.00000   0.00003   0.00110   0.00000
  42       14F-1        0.00000   0.00424   0.00000   0.00000  -0.00008
  43       14F+2       -0.00163   0.00000   0.00032  -0.00003   0.00000
  44       14F-2        0.00000  -0.00002   0.00000   0.00000  -0.00006
  45       14F+3        0.00000   0.00000  -0.00001   0.00073   0.00000
  46       14F-3        0.00000   0.00101   0.00000   0.00000   0.00013
  47 2   C  1S         -0.11378   0.00000  -0.03594   0.00123   0.00000
  48        2S          0.30979   0.00000   0.10100  -0.00362   0.00000
  49        3S          0.08111   0.00000   0.02500  -0.00069   0.00000
  50        4S          0.10666   0.00000   0.05275  -0.00103   0.00000
  51        5S          0.00863   0.00000   0.01336  -0.00085   0.00000
  52        6PX        -0.00190   0.00000  -0.00082   0.11081   0.00000
  53        6PY         0.00000   0.14451   0.00000   0.00000   0.01539
  54        6PZ         0.14800   0.00000  -0.04928   0.00513   0.00000
  55        7PX        -0.00225   0.00000  -0.00122   0.15293   0.00000
  56        7PY         0.00000   0.18806   0.00000   0.00000   0.02340
  57        7PZ         0.15694   0.00000  -0.07108   0.00648   0.00000
  58        8PX        -0.00032   0.00000  -0.00047   0.04532   0.00000
  59        8PY         0.00000   0.01614   0.00000   0.00000   0.00500
  60        8PZ        -0.00181   0.00000  -0.02648  -0.00017   0.00000
  61        9PX         0.00002   0.00000  -0.00012   0.01278   0.00000
  62        9PY         0.00000  -0.00875   0.00000   0.00000  -0.00987
  63        9PZ        -0.00250   0.00000  -0.01084  -0.00016   0.00000
  64       10D 0        0.01573   0.00000   0.01076   0.00052   0.00000
  65       10D+1       -0.00033   0.00000   0.00003  -0.00466   0.00000
  66       10D-1        0.00000   0.02076   0.00000   0.00000   0.00398
  67       10D+2        0.00003   0.00000   0.00397   0.00019   0.00000
  68       10D-2        0.00000  -0.00020   0.00000   0.00000   0.00072
  69       11D 0        0.00134   0.00000   0.03300   0.00060   0.00000
  70       11D+1       -0.00016   0.00000   0.00006  -0.02721   0.00000
  71       11D-1        0.00000   0.01994   0.00000   0.00000   0.00293
  72       11D+2       -0.00442   0.00000   0.01549   0.00026   0.00000
  73       11D-2        0.00000  -0.00030   0.00000   0.00000   0.00232
  74       12D 0        0.00023   0.00000  -0.02335  -0.00087   0.00000
  75       12D+1        0.00015   0.00000  -0.00016  -0.00823   0.00000
  76       12D-1        0.00000  -0.01540   0.00000   0.00000   0.01411
  77       12D+2        0.00441   0.00000  -0.01756  -0.00017   0.00000
  78       12D-2        0.00000   0.00066   0.00000   0.00000  -0.00040
  79       13F 0        0.00918   0.00000  -0.00069   0.00004   0.00000
  80       13F+1       -0.00018   0.00000  -0.00009   0.00251   0.00000
  81       13F-1        0.00000   0.00512   0.00000   0.00000   0.00853
  82       13F+2        0.00173   0.00000   0.00173  -0.00011   0.00000
  83       13F-2        0.00000  -0.00005   0.00000   0.00000  -0.00035
  84       13F+3        0.00005   0.00000   0.00000  -0.00482   0.00000
  85       13F-3        0.00000  -0.00290   0.00000   0.00000   0.00150
  86       14F 0       -0.01002   0.00000  -0.00458  -0.00040   0.00000
  87       14F+1        0.00021   0.00000  -0.00010  -0.00050   0.00000
  88       14F-1        0.00000   0.00158   0.00000   0.00000   0.01439
  89       14F+2       -0.00324   0.00000  -0.00099   0.00010   0.00000
  90       14F-2        0.00000   0.00011   0.00000   0.00000  -0.00074
  91       14F+3        0.00009   0.00000  -0.00002  -0.00312   0.00000
  92       14F-3        0.00000   0.00077   0.00000   0.00000   0.00345
  93 3   Cl 1S         -0.01193   0.01512  -0.01051   0.00033  -0.00125
  94        2S          0.04624  -0.05758   0.03994  -0.00124   0.00492
  95        3S         -0.09412   0.12342  -0.08672   0.00282  -0.00969
  96        4S         -0.01266   0.01716  -0.01356   0.00048  -0.00201
  97        5S         -0.07972   0.11889  -0.08161   0.00258  -0.01048
  98        6S         -0.00811   0.00808  -0.02259   0.00053  -0.01255
  99        7PX         0.00011  -0.00016   0.00043  -0.14792   0.01228
 100        7PY        -0.00338   0.00422  -0.10714   0.00227   0.09024
 101        7PZ        -0.01477   0.04402   0.10881   0.00411  -0.13989
 102        8PX        -0.00026   0.00037  -0.00102   0.34855  -0.02872
 103        8PY         0.00418   0.00283   0.24744  -0.00490  -0.21098
 104        8PZ         0.03226  -0.09626  -0.25995  -0.00935   0.33177
 105        9PX        -0.00013   0.00022  -0.00049   0.16274  -0.01365
 106        9PY         0.00386  -0.00283   0.11691  -0.00227  -0.10212
 107        9PZ         0.01664  -0.04808  -0.12442  -0.00448   0.15737
 108       10PX        -0.00015   0.00080  -0.00082   0.19588  -0.01780
 109       10PY        -0.01542   0.03080   0.12754  -0.00152  -0.13452
 110       10PZ         0.00601  -0.03823  -0.17650  -0.00525   0.20768
 111       11PX         0.00001   0.00010  -0.00003   0.00082  -0.00089
 112       11PY        -0.00088   0.00444   0.00036   0.00012  -0.00657
 113       11PZ         0.00003   0.00269  -0.00754  -0.00014   0.01045
 114       12D 0        0.00315  -0.00566  -0.00694   0.00007   0.00097
 115       12D+1       -0.00001  -0.00007  -0.00004   0.00559  -0.00027
 116       12D-1        0.00566  -0.01037   0.00153  -0.00057  -0.00132
 117       12D+2       -0.00099   0.00445  -0.00942   0.00051   0.00065
 118       12D-2       -0.00004  -0.00006   0.00003   0.01067  -0.00036
 119       13D 0        0.00219  -0.00864  -0.00846   0.00010  -0.00075
 120       13D+1        0.00002  -0.00009  -0.00005   0.00829  -0.00031
 121       13D-1        0.00533  -0.00692   0.00106  -0.00055  -0.00081
 122       13D+2        0.00166   0.00051  -0.01148   0.00065  -0.00156
 123       13D-2       -0.00009  -0.00006   0.00001   0.01640  -0.00034
 124       14D 0        0.00230  -0.00604  -0.00795   0.00000   0.00141
 125       14D+1        0.00001   0.00010  -0.00015   0.00176  -0.00035
 126       14D-1       -0.00037  -0.00170  -0.00341  -0.00023   0.00147
 127       14D+2        0.00314  -0.00294  -0.00567   0.00006   0.00044
 128       14D-2       -0.00009   0.00011  -0.00001   0.00527  -0.00047
 129       15F 0        0.00032  -0.00022  -0.00195   0.00010   0.00081
 130       15F+1        0.00000  -0.00003  -0.00003   0.00052   0.00000
 131       15F-1        0.00146  -0.00359  -0.00400  -0.00010   0.00274
 132       15F+2       -0.00035   0.00231  -0.00130   0.00026   0.00030
 133       15F-2       -0.00002  -0.00004  -0.00001   0.00440  -0.00023
 134       15F+3        0.00001   0.00001  -0.00003  -0.00433   0.00020
 135       15F-3        0.00032   0.00051  -0.00321   0.00019   0.00092
 136       16F 0       -0.00158  -0.00135  -0.00046   0.00000  -0.00046
 137       16F+1        0.00003   0.00000  -0.00004  -0.00046  -0.00002
 138       16F-1       -0.00016  -0.00050  -0.00207   0.00000   0.00148
 139       16F+2       -0.00019  -0.00212  -0.00053   0.00003  -0.00057
 140       16F-2        0.00003   0.00002  -0.00003   0.00222  -0.00010
 141       16F+3        0.00007  -0.00002   0.00000  -0.00243   0.00006
 142       16F-3        0.00116  -0.00160  -0.00110   0.00008  -0.00055
 143 4   Cl 1S         -0.01193  -0.01512  -0.01051   0.00033   0.00125
 144        2S          0.04624   0.05758   0.03994  -0.00124  -0.00492
 145        3S         -0.09412  -0.12342  -0.08672   0.00282   0.00969
 146        4S         -0.01266  -0.01716  -0.01356   0.00048   0.00201
 147        5S         -0.07972  -0.11889  -0.08161   0.00258   0.01048
 148        6S         -0.00811  -0.00808  -0.02259   0.00053   0.01255
 149        7PX         0.00011   0.00016   0.00043  -0.14792  -0.01228
 150        7PY         0.00338   0.00422   0.10714  -0.00227   0.09024
 151        7PZ        -0.01477  -0.04402   0.10881   0.00411   0.13989
 152        8PX        -0.00026  -0.00037  -0.00102   0.34855   0.02872
 153        8PY        -0.00418   0.00283  -0.24744   0.00490  -0.21098
 154        8PZ         0.03226   0.09626  -0.25995  -0.00935  -0.33177
 155        9PX        -0.00013  -0.00022  -0.00049   0.16274   0.01365
 156        9PY        -0.00386  -0.00283  -0.11691   0.00227  -0.10212
 157        9PZ         0.01664   0.04808  -0.12442  -0.00448  -0.15737
 158       10PX        -0.00015  -0.00080  -0.00082   0.19588   0.01780
 159       10PY         0.01542   0.03080  -0.12754   0.00152  -0.13452
 160       10PZ         0.00601   0.03823  -0.17650  -0.00525  -0.20768
 161       11PX         0.00001  -0.00010  -0.00003   0.00082   0.00089
 162       11PY         0.00088   0.00444  -0.00036  -0.00012  -0.00657
 163       11PZ         0.00003  -0.00269  -0.00754  -0.00014  -0.01045
 164       12D 0        0.00315   0.00566  -0.00694   0.00007  -0.00097
 165       12D+1       -0.00001   0.00007  -0.00004   0.00559   0.00027
 166       12D-1       -0.00566  -0.01037  -0.00153   0.00057  -0.00132
 167       12D+2       -0.00099  -0.00445  -0.00942   0.00051  -0.00065
 168       12D-2        0.00004  -0.00006  -0.00003  -0.01067  -0.00036
 169       13D 0        0.00219   0.00864  -0.00846   0.00010   0.00075
 170       13D+1        0.00002   0.00009  -0.00005   0.00829   0.00031
 171       13D-1       -0.00533  -0.00692  -0.00106   0.00055  -0.00081
 172       13D+2        0.00166  -0.00051  -0.01148   0.00065   0.00156
 173       13D-2        0.00009  -0.00006  -0.00001  -0.01640  -0.00034
 174       14D 0        0.00230   0.00604  -0.00795   0.00000  -0.00141
 175       14D+1        0.00001  -0.00010  -0.00015   0.00176   0.00035
 176       14D-1        0.00037  -0.00170   0.00341   0.00023   0.00147
 177       14D+2        0.00314   0.00294  -0.00567   0.00006  -0.00044
 178       14D-2        0.00009   0.00011   0.00001  -0.00527  -0.00047
 179       15F 0        0.00032   0.00022  -0.00195   0.00010  -0.00081
 180       15F+1        0.00000   0.00003  -0.00003   0.00052   0.00000
 181       15F-1       -0.00146  -0.00359   0.00400   0.00010   0.00274
 182       15F+2       -0.00035  -0.00231  -0.00130   0.00026  -0.00030
 183       15F-2        0.00002  -0.00004   0.00001  -0.00440  -0.00023
 184       15F+3        0.00001  -0.00001  -0.00003  -0.00433  -0.00020
 185       15F-3       -0.00032   0.00051   0.00321  -0.00019   0.00092
 186       16F 0       -0.00158   0.00135  -0.00046   0.00000   0.00046
 187       16F+1        0.00003   0.00000  -0.00004  -0.00046   0.00002
 188       16F-1        0.00016  -0.00050   0.00207   0.00000   0.00148
 189       16F+2       -0.00019   0.00212  -0.00053   0.00003   0.00057
 190       16F-2       -0.00003   0.00002   0.00003  -0.00222  -0.00010
 191       16F+3        0.00007   0.00002   0.00000  -0.00243  -0.00006
 192       16F-3       -0.00116  -0.00160   0.00110  -0.00008  -0.00055
                          21        22        23        24        25
     Eigenvalues --     1.94726   1.94725   1.93696   1.93115   0.06666
   1 1   O  1S         -0.02734   0.00000   0.00000   0.00033   0.00030
   2        2S          0.07387   0.00000   0.00000  -0.00100  -0.00113
   3        3S          0.02084   0.00000   0.00000  -0.00032  -0.00027
   4        4S          0.02949   0.00000   0.00000  -0.00166  -0.00276
   5        5S          0.00090   0.00000   0.00000  -0.00017  -0.00131
   6        6PX         0.00071   0.00000   0.00000   0.29512  -0.34424
   7        6PY         0.00000   0.00700  -0.14083   0.00000   0.00000
   8        6PZ        -0.10265   0.00000   0.00000   0.00199  -0.00065
   9        7PX         0.00085   0.00000   0.00000   0.36985  -0.39616
  10        7PY         0.00000   0.00855  -0.17513   0.00000   0.00000
  11        7PZ        -0.12534   0.00000   0.00000   0.00255  -0.00053
  12        8PX         0.00067   0.00000   0.00000   0.24747  -0.07271
  13        8PY         0.00000   0.00647  -0.12136   0.00000   0.00000
  14        8PZ        -0.04099   0.00000   0.00000   0.00209  -0.00037
  15        9PX         0.00064   0.00000   0.00000   0.02589  -0.00389
  16        9PY         0.00000   0.00139  -0.02174   0.00000   0.00000
  17        9PZ         0.00342   0.00000   0.00000   0.00032   0.00007
  18       10D 0        0.00478   0.00000   0.00000  -0.00012  -0.00025
  19       10D+1       -0.00002   0.00000   0.00000  -0.01036  -0.01309
  20       10D-1        0.00000  -0.00013   0.00021   0.00000   0.00000
  21       10D+2        0.00003   0.00000   0.00000   0.00009   0.00019
  22       10D-2        0.00000  -0.00038   0.00000   0.00000   0.00000
  23       11D 0        0.00931   0.00000   0.00000  -0.00038  -0.00045
  24       11D+1        0.00002   0.00000   0.00000  -0.02823  -0.01095
  25       11D-1        0.00000  -0.00024  -0.00017   0.00000   0.00000
  26       11D+2        0.00206   0.00000   0.00000   0.00024   0.00015
  27       11D-2        0.00000  -0.00173  -0.00005   0.00000   0.00000
  28       12D 0       -0.01208   0.00000   0.00000  -0.00009   0.00048
  29       12D+1        0.00027   0.00000   0.00000  -0.01256   0.01610
  30       12D-1        0.00000  -0.00031  -0.00749   0.00000   0.00000
  31       12D+2        0.00225   0.00000   0.00000   0.00022  -0.00027
  32       12D-2        0.00000  -0.00383   0.00004   0.00000   0.00000
  33       13F 0       -0.00190   0.00000   0.00000   0.00011   0.00011
  34       13F+1        0.00001   0.00000   0.00000   0.00541   0.00389
  35       13F-1        0.00000   0.00007   0.00021   0.00000   0.00000
  36       13F+2       -0.00048   0.00000   0.00000  -0.00007  -0.00005
  37       13F-2        0.00000   0.00033   0.00000   0.00000   0.00000
  38       13F+3        0.00000   0.00000   0.00000   0.00105  -0.00254
  39       13F-3        0.00000   0.00003  -0.00045   0.00000   0.00000
  40       14F 0       -0.00196   0.00000   0.00000   0.00007  -0.00002
  41       14F+1       -0.00002   0.00000   0.00000   0.00347  -0.00534
  42       14F-1        0.00000   0.00004  -0.00072   0.00000   0.00000
  43       14F+2       -0.00234   0.00000   0.00000  -0.00006   0.00014
  44       14F-2        0.00000   0.00120   0.00006   0.00000   0.00000
  45       14F+3        0.00002   0.00000   0.00000   0.00088  -0.00076
  46       14F-3        0.00000  -0.00003  -0.00019   0.00000   0.00000
  47 2   C  1S          0.07644   0.00000   0.00000  -0.00110  -0.00309
  48        2S         -0.21883   0.00000   0.00000   0.00311   0.00951
  49        3S         -0.04711   0.00000   0.00000   0.00081   0.00325
  50        4S         -0.16445   0.00000   0.00000   0.00254   0.01290
  51        5S         -0.02102   0.00000   0.00000   0.00018   0.00178
  52        6PX        -0.00337   0.00000   0.00000   0.17269   0.30814
  53        6PY         0.00000   0.00116   0.13970   0.00000   0.00000
  54        6PZ         0.17329   0.00000   0.00000   0.00096  -0.00118
  55        7PX        -0.00457   0.00000   0.00000   0.21998   0.46712
  56        7PY         0.00000   0.00166   0.19864   0.00000   0.00000
  57        7PZ         0.22193   0.00000   0.00000   0.00125  -0.00156
  58        8PX        -0.00152   0.00000   0.00000   0.08355   0.15520
  59        8PY         0.00000  -0.00082   0.02859   0.00000   0.00000
  60        8PZ         0.03429   0.00000   0.00000   0.00144  -0.00026
  61        9PX        -0.00054   0.00000   0.00000  -0.00177   0.01046
  62        9PY         0.00000  -0.00134  -0.00027   0.00000   0.00000
  63        9PZ        -0.00728   0.00000   0.00000   0.00006  -0.00017
  64       10D 0        0.01292   0.00000   0.00000   0.00029  -0.00014
  65       10D+1       -0.00002   0.00000   0.00000   0.02389  -0.00026
  66       10D-1        0.00000   0.00017  -0.02896   0.00000   0.00000
  67       10D+2        0.00961   0.00000   0.00000  -0.00015   0.00016
  68       10D-2        0.00000  -0.01040  -0.00002   0.00000   0.00000
  69       11D 0        0.00925   0.00000   0.00000   0.00042   0.00059
  70       11D+1        0.00061   0.00000   0.00000   0.03716   0.02332
  71       11D-1        0.00000  -0.00024  -0.07219   0.00000   0.00000
[...]
  75       12D+1        0.00000  -0.03044   0.75253   0.00000   0.00000
  76       12D-1        7.06534   0.00000   0.00000  -2.28599   0.97670
  77       12D+2        0.00000   1.43803   0.00082   0.00000   0.00000
  78       12D-2       -0.04480   0.00000   0.00000  -0.07509  -0.04893
  79       13F 0        0.00000  -0.05435  -0.00433   0.00000   0.00000
  80       13F+1        0.00000   0.00303  -0.09366   0.00000   0.00000
  81       13F-1       -0.02168   0.00000   0.00000  -0.07703  -0.01975
  82       13F+2        0.00000  -0.03894  -0.00050   0.00000   0.00000
  83       13F-2        0.00055   0.00000   0.00000   0.00009   0.00116
  84       13F+3        0.00000  -0.00147   0.03847   0.00000   0.00000
  85       13F-3       -0.00672   0.00000   0.00000   0.01056   0.01861
  86       14F 0        0.00000   0.10758  -0.00691   0.00000   0.00000
  87       14F+1        0.00000  -0.00214  -0.17869   0.00000   0.00000
  88       14F-1        0.44747   0.00000   0.00000  -0.19134  -0.21046
  89       14F+2        0.00000   0.26122  -0.00273   0.00000   0.00000
  90       14F-2        0.00103   0.00000   0.00000  -0.00489   0.00195
  91       14F+3        0.00000  -0.00579   0.01345   0.00000   0.00000
  92       14F-3        0.19604   0.00000   0.00000  -0.19083  -0.10408
  93 3   Cl 1S          0.02896  -0.01487  -0.00019  -0.01195   0.00892
  94        2S          0.46372  -0.22388  -0.00261  -0.15486   0.15519
  95        3S          1.16598  -0.58508  -0.00742  -0.45515   0.36382
  96        4S         -0.22966   0.09510  -0.00035  -0.01524  -0.13472
  97        5S         -6.82634   1.75987   0.03208   3.63214  -0.95555
  98        6S         -2.97208   1.52416   0.10329  12.86139   1.22297
  99        7PX         0.00032   0.00028  -0.01670   0.00018   0.00030
 100        7PY         0.00676   0.00335   0.00087  -0.01311  -0.00106
 101        7PZ        -0.01104  -0.00778   0.00033   0.00134   0.00495
 102        8PX         0.00443   0.00288  -0.21302   0.00361   0.00518
 103        8PY        -0.00353   0.05231   0.01203  -0.21761   0.06739
 104        8PZ        -0.28200  -0.09265   0.00592   0.00688   0.11243
 105        9PX        -0.00115  -0.00117   0.06478  -0.00068  -0.00114
 106        9PY        -0.01928  -0.02866  -0.00351   0.04941   0.00666
 107        9PZ         0.04486   0.01467  -0.00148  -0.00817  -0.01768
 108       10PX        -0.06962  -0.01599   0.92577   0.01001  -0.03335
 109       10PY        -3.37277   0.42976   0.02546   4.72983  -0.42163
 110       10PZ        -1.12602   1.92302   0.05744   3.44309  -0.06077
 111       11PX        -0.00077   0.06529  -2.24704  -0.00013   0.01350
 112       11PY        -0.50124  -0.66566   0.01452   2.28005  -3.04180
 113       11PZ         0.29801  -2.01954  -0.02456   1.58292   0.70038
 114       12D 0        0.00766  -0.04190  -0.00097  -0.02121   0.00597
 115       12D+1        0.00053   0.00072  -0.02661  -0.00062  -0.00021
 116       12D-1        0.05123  -0.08378  -0.00148   0.01847  -0.01515
 117       12D+2       -0.01082   0.06987   0.00087  -0.03396   0.05921
 118       12D-2       -0.00030  -0.00034  -0.00983  -0.00026  -0.00044
 119       13D 0       -0.12130   0.17067   0.00441   0.12653  -0.00371
 120       13D+1       -0.00379  -0.00336   0.08301   0.00433   0.00182
 121       13D-1       -0.38666   0.37093   0.01198   0.05215   0.13769
 122       13D+2        0.12708  -0.28466  -0.00666   0.07563  -0.26539
 123       13D-2       -0.00059   0.00026   0.03571   0.00315   0.00231
 124       14D 0        0.57413   0.26228   0.00198   0.06553   0.26857
 125       14D+1       -0.01064   0.01253  -0.07869  -0.00348  -0.01117
 126       14D-1       -0.19301   0.12672   0.02419   1.56533  -0.13610
 127       14D+2        0.25897   0.37134  -0.00196  -1.05504   0.70795
 128       14D-2       -0.02482  -0.00675   0.19121   0.00418  -0.01381
 129       15F 0       -0.03348  -0.00104   0.00089   0.00828   0.01334
 130       15F+1       -0.00095  -0.00122  -0.00492   0.00069   0.00050
 131       15F-1       -0.00415  -0.04226  -0.00148  -0.04676  -0.00429
 132       15F+2       -0.00143   0.02887   0.00070   0.01252   0.00318
 133       15F-2        0.00085  -0.00056  -0.01638  -0.00020   0.00095
 134       15F+3        0.00036  -0.00140   0.04290   0.00055   0.00017
 135       15F-3        0.03183  -0.00158  -0.00092  -0.00757   0.01090
 136       16F 0        0.13664   0.00391  -0.00435  -0.03721  -0.02521
 137       16F+1        0.00143   0.00340  -0.00126  -0.00123  -0.00088
 138       16F-1       -0.05893   0.18121   0.00678   0.19048   0.05378
 139       16F+2        0.10026  -0.13237  -0.00655  -0.11206  -0.02656
 140       16F-2       -0.00467   0.00139   0.03630   0.00170  -0.00227
 141       16F+3        0.00128   0.00290  -0.10357  -0.00200   0.00030
 142       16F-3       -0.03163  -0.03696  -0.00007  -0.02409  -0.00240
 143 4   Cl 1S         -0.02896  -0.01487  -0.00019   0.01195  -0.00892
 144        2S         -0.46372  -0.22388  -0.00261   0.15486  -0.15519
 145        3S         -1.16598  -0.58508  -0.00742   0.45515  -0.36382
 146        4S          0.22966   0.09510  -0.00035   0.01524   0.13472
 147        5S          6.82634   1.75987   0.03208  -3.63214   0.95555
 148        6S          2.97208   1.52416   0.10329 -12.86139  -1.22297
 149        7PX        -0.00032   0.00028  -0.01670  -0.00018  -0.00030
 150        7PY         0.00676  -0.00335  -0.00087  -0.01311  -0.00106
 151        7PZ         0.01104  -0.00778   0.00033  -0.00134  -0.00495
 152        8PX        -0.00443   0.00288  -0.21302  -0.00361  -0.00518
 153        8PY        -0.00353  -0.05231  -0.01203  -0.21761   0.06739
 154        8PZ         0.28200  -0.09265   0.00592  -0.00688  -0.11243
 155        9PX         0.00115  -0.00117   0.06478   0.00068   0.00114
 156        9PY        -0.01928   0.02866   0.00351   0.04941   0.00666
 157        9PZ        -0.04486   0.01467  -0.00148   0.00817   0.01768
 158       10PX         0.06962  -0.01599   0.92577  -0.01001   0.03335
 159       10PY        -3.37277  -0.42976  -0.02546   4.72983  -0.42163
 160       10PZ         1.12602   1.92302   0.05744  -3.44309   0.06077
 161       11PX         0.00077   0.06529  -2.24704   0.00013  -0.01350
 162       11PY        -0.50124   0.66566  -0.01452   2.28005  -3.04180
 163       11PZ        -0.29801  -2.01954  -0.02456  -1.58292  -0.70038
 164       12D 0       -0.00766  -0.04190  -0.00097   0.02121  -0.00597
 165       12D+1       -0.00053   0.00072  -0.02661   0.00062   0.00021
 166       12D-1        0.05123   0.08378   0.00148   0.01847  -0.01515
 167       12D+2        0.01082   0.06987   0.00087   0.03396  -0.05921
 168       12D-2       -0.00030   0.00034   0.00983  -0.00026  -0.00044
 169       13D 0        0.12130   0.17067   0.00441  -0.12653   0.00371
 170       13D+1        0.00379  -0.00336   0.08301  -0.00433  -0.00182
 171       13D-1       -0.38666  -0.37093  -0.01198   0.05215   0.13769
 172       13D+2       -0.12708  -0.28466  -0.00666  -0.07563   0.26539
 173       13D-2       -0.00059  -0.00026  -0.03571   0.00315   0.00231
 174       14D 0       -0.57413   0.26228   0.00198  -0.06553  -0.26857
 175       14D+1        0.01064   0.01253  -0.07869   0.00348   0.01117
 176       14D-1       -0.19301  -0.12672  -0.02419   1.56533  -0.13610
 177       14D+2       -0.25897   0.37134  -0.00196   1.05504  -0.70795
 178       14D-2       -0.02482   0.00675  -0.19121   0.00418  -0.01381
 179       15F 0        0.03348  -0.00104   0.00089  -0.00828  -0.01334
 180       15F+1        0.00095  -0.00122  -0.00492  -0.00069  -0.00050
 181       15F-1       -0.00415   0.04226   0.00148  -0.04676  -0.00429
 182       15F+2        0.00143   0.02887   0.00070  -0.01252  -0.00318
 183       15F-2        0.00085   0.00056   0.01638  -0.00020   0.00095
 184       15F+3       -0.00036  -0.00140   0.04290  -0.00055  -0.00017
 185       15F-3        0.03183   0.00158   0.00092  -0.00757   0.01090
 186       16F 0       -0.13664   0.00391  -0.00435   0.03721   0.02521
 187       16F+1       -0.00143   0.00340  -0.00126   0.00123   0.00088
 188       16F-1       -0.05893  -0.18121  -0.00678   0.19048   0.05378
 189       16F+2       -0.10026  -0.13237  -0.00655   0.11206   0.02656
 190       16F-2       -0.00467  -0.00139  -0.03630   0.00170  -0.00227
 191       16F+3       -0.00128   0.00290  -0.10357   0.00200  -0.00030
 192       16F-3       -0.03163   0.03696   0.00007  -0.02409  -0.00240
                         191       192
     Eigenvalues --     0.00000   0.00000
   1 1   O  1S          0.07127   0.07096
   2        2S          0.38111   0.36311
   3        3S          0.01086  -0.01499
   4        4S         -4.63946  -2.96222
   5        5S         -9.45696  -8.51290
   6        6PX         0.00044  -0.00022
   7        6PY         0.00000   0.00000
   8        6PZ        -0.00975   0.00440
   9        7PX        -0.00247   0.00164
  10        7PY         0.00000   0.00000
  11        7PZ         0.15299  -0.01109
  12        8PX         0.00414  -0.03036
  13        8PY         0.00000   0.00000
  14        8PZ         2.74990   2.14635
  15        9PX        -0.05647  -0.03985
  16        9PY         0.00000   0.00000
  17        9PZ        -1.39084  -0.04321
  18       10D 0        0.03871   0.04110
  19       10D+1       -0.00069   0.00036
  20       10D-1        0.00000   0.00000
  21       10D+2       -0.02815  -0.01394
  22       10D-2        0.00000   0.00000
  23       11D 0       -0.31826  -0.21726
  24       11D+1        0.00381  -0.00065
  25       11D-1        0.00000   0.00000
  26       11D+2        0.08029   0.04298
  27       11D-2        0.00000   0.00000
  28       12D 0       -0.40787  -0.30899
  29       12D+1       -0.00731   0.01483
  30       12D-1        0.00000   0.00000
  31       12D+2       -0.44708  -0.13114
  32       12D-2        0.00000   0.00000
  33       13F 0        0.00932  -0.00968
  34       13F+1       -0.00096   0.00012
  35       13F-1        0.00000   0.00000
  36       13F+2       -0.01496  -0.00610
  37       13F-2        0.00000   0.00000
  38       13F+3        0.00081  -0.00015
  39       13F-3        0.00000   0.00000
  40       14F 0        0.12928   0.11631
  41       14F+1        0.00087  -0.00160
  42       14F-1        0.00000   0.00000
  43       14F+2        0.06849   0.02575
  44       14F-2        0.00000   0.00000
  45       14F+3       -0.00219   0.00050
  46       14F-3        0.00000   0.00000
  47 2   C  1S          0.20704   0.02751
  48        2S          1.14574   0.23982
  49        3S         -0.04735   0.10564
  50        4S          6.57200  12.27944
  51        5S         -2.31271  19.33002
  52        6PX         0.00101  -0.00059
  53        6PY         0.00000   0.00000
  54        6PZ         0.01967   0.00930
  55        7PX        -0.02047  -0.00560
  56        7PY         0.00000   0.00000
  57        7PZ         1.05387   0.59702
  58        8PX        -0.05596  -0.03247
  59        8PY         0.00000   0.00000
  60        8PZ         2.83468  -0.74235
  61        9PX         0.07163  -0.02927
  62        9PY         0.00000   0.00000
  63        9PZ         7.25724  -0.54790
  64       10D 0        0.06277   0.04598
  65       10D+1       -0.00110  -0.00106
  66       10D-1        0.00000   0.00000
  67       10D+2        0.01277  -0.02112
  68       10D-2        0.00000   0.00000
  69       11D 0        0.51288   0.20914
  70       11D+1       -0.01322  -0.00094
  71       11D-1        0.00000   0.00000
  72       11D+2       -0.05929  -0.02768
  73       11D-2        0.00000   0.00000
  74       12D 0        3.23074   1.63021
  75       12D+1       -0.01586   0.01016
  76       12D-1        0.00000   0.00000
  77       12D+2        1.52110  -0.74851
  78       12D-2        0.00000   0.00000
  79       13F 0        0.06133  -0.01196
  80       13F+1       -0.00054  -0.00140
  81       13F-1        0.00000   0.00000
  82       13F+2       -0.01154   0.00020
  83       13F-2        0.00000   0.00000
  84       13F+3        0.00097   0.00029
  85       13F-3        0.00000   0.00000
  86       14F 0       -0.04861  -0.04251
  87       14F+1       -0.00491   0.00256
  88       14F-1        0.00000   0.00000
  89       14F+2        0.23733   0.02114
  90       14F-2        0.00000   0.00000
  91       14F+3       -0.00053  -0.00169
  92       14F-3        0.00000   0.00000
  93 3   Cl 1S          0.00771   0.00044
  94        2S          0.13247  -0.01438
  95        3S          0.31346   0.00446
  96        4S         -0.10063   0.06709
  97        5S         -0.84140  -0.55414
  98        6S          4.69828 -10.20917
  99        7PX        -0.00021   0.00004
 100        7PY        -0.00519   0.01043
 101        7PZ        -0.01712   0.00573
 102        8PX        -0.00367   0.00091
 103        8PY        -0.08427   0.18090
 104        8PZ        -0.26851   0.10276
 105        9PX         0.00077  -0.00013
 106        9PY         0.01872  -0.03702
 107        9PZ         0.06384  -0.02069
 108       10PX         0.01155  -0.02059
 109       10PY        -0.80387  -2.88641
 110       10PZ         1.51658  -1.34657
 111       11PX        -0.00821  -0.00904
 112       11PY         0.87596  -1.63208
 113       11PZ        -1.08052  -1.33332
 114       12D 0       -0.01819   0.00182
 115       12D+1        0.00018   0.00015
 116       12D-1        0.00765  -0.00178
 117       12D+2        0.00346  -0.02311
 118       12D-2        0.00019  -0.00014
 119       13D 0        0.07464   0.00938
 120       13D+1       -0.00170  -0.00074
 121       13D-1       -0.04834  -0.00540
 122       13D+2        0.02035   0.10134
 123       13D-2       -0.00184  -0.00016
 124       14D 0        0.28094   0.13324
 125       14D+1        0.01145  -0.00379
 126       14D-1        0.14624  -0.76249
 127       14D+2        0.46844   0.63948
 128       14D-2       -0.00070  -0.01266
 129       15F 0        0.00246  -0.01650
 130       15F+1       -0.00090   0.00015
 131       15F-1        0.01441   0.00801
 132       15F+2        0.00110  -0.04132
 133       15F-2       -0.00130   0.00029
 134       15F+3       -0.00033  -0.00091
 135       15F-3       -0.00213  -0.03447
 136       16F 0       -0.00249   0.05461
 137       16F+1        0.00251  -0.00026
 138       16F-1       -0.01184  -0.02076
 139       16F+2        0.01820   0.13819
 140       16F-2        0.00282  -0.00114
 141       16F+3        0.00198   0.00337
 142       16F-3        0.04802   0.11633
 143 4   Cl 1S          0.00771   0.00044
 144        2S          0.13247  -0.01438
 145        3S          0.31346   0.00446
 146        4S         -0.10063   0.06709
 147        5S         -0.84140  -0.55414
 148        6S          4.69828 -10.20917
 149        7PX        -0.00021   0.00004
 150        7PY         0.00519  -0.01043
 151        7PZ        -0.01712   0.00573
 152        8PX        -0.00367   0.00091
 153        8PY         0.08427  -0.18090
 154        8PZ        -0.26851   0.10276
 155        9PX         0.00077  -0.00013
 156        9PY        -0.01872   0.03702
 157        9PZ         0.06384  -0.02069
 158       10PX         0.01155  -0.02059
 159       10PY         0.80387   2.88641
 160       10PZ         1.51658  -1.34657
 161       11PX        -0.00821  -0.00904
 162       11PY        -0.87596   1.63208
 163       11PZ        -1.08052  -1.33332
 164       12D 0       -0.01819   0.00182
 165       12D+1        0.00018   0.00015
 166       12D-1       -0.00765   0.00178
 167       12D+2        0.00346  -0.02311
 168       12D-2       -0.00019   0.00014
 169       13D 0        0.07464   0.00938
 170       13D+1       -0.00170  -0.00074
 171       13D-1        0.04834   0.00540
 172       13D+2        0.02035   0.10134
 173       13D-2        0.00184   0.00016
 174       14D 0        0.28094   0.13324
 175       14D+1        0.01145  -0.00379
 176       14D-1       -0.14624   0.76249
 177       14D+2        0.46844   0.63948
 178       14D-2        0.00070   0.01266
 179       15F 0        0.00246  -0.01650
 180       15F+1       -0.00090   0.00015
 181       15F-1       -0.01441  -0.00801
 182       15F+2        0.00110  -0.04132
 183       15F-2        0.00130  -0.00029
 184       15F+3       -0.00033  -0.00091
 185       15F-3        0.00213   0.03447
 186       16F 0       -0.00249   0.05461
 187       16F+1        0.00251  -0.00026
 188       16F-1        0.01184   0.02076
 189       16F+2        0.01820   0.13819
 190       16F-2       -0.00282   0.00114
 191       16F+3        0.00198   0.00337
 192       16F-3       -0.04802  -0.11633
          Condensed to atoms (all electrons):
              1          2          3          4
     1  O    8.034181   0.435540  -0.074439  -0.074439
     2  C    0.435540   4.966597   0.136369   0.136369
     3  Cl  -0.074439   0.136369  17.040641  -0.100430
     4  Cl  -0.074439   0.136369  -0.100430  17.040641
 Mulliken atomic charges:
              1
     1  O   -0.320844
     2  C    0.325125
     3  Cl  -0.002141
     4  Cl  -0.002141
 Sum of Mulliken atomic charges =   0.00000
 Mulliken charges with hydrogens summed into heavy atoms:
              1
     1  O   -0.320844
     2  C    0.325125
     3  Cl  -0.002141
     4  Cl  -0.002141
 Sum of Mulliken charges with hydrogens summed into heavy atoms =   0.00000
 Electronic spatial extent (au):  <R**2>=            613.6888
 Charge=              0.0000 electrons
 Dipole moment (field-independent basis, Debye):
    X=              0.0103    Y=              0.0000    Z=             -1.2392  Tot=              1.2392
 Quadrupole moment (field-independent basis, Debye-Ang):
   XX=            -35.0846   YY=            -34.3840   ZZ=            -36.2853
   XY=              0.0000   XZ=              0.0142   YZ=              0.0000
 Traceless Quadrupole moment (field-independent basis, Debye-Ang):
   XX=              0.1667   YY=              0.8673   ZZ=             -1.0340
   XY=              0.0000   XZ=              0.0142   YZ=              0.0000
 Octapole moment (field-independent basis, Debye-Ang**2):
  XXX=             -0.1519  YYY=              0.0000  ZZZ=            106.2014  XYY=             -0.1296
  XXY=              0.0000  XXZ=             36.0664  XZZ=             -0.1134  YZZ=              0.0000
  YYZ=             29.7050  XYZ=              0.0000
 Hexadecapole moment (field-independent basis, Debye-Ang**3):
 XXXX=            -37.1340 YYYY=           -329.2972 ZZZZ=           -383.1020 XXXY=              0.0000
 XXXZ=              0.0963 YYYX=              0.0000 YYYZ=              0.0000 ZZZX=              0.2263
 ZZZY=              0.0000 XXYY=            -65.2568 XXZZ=            -71.0861 YYZZ=           -106.8895
 XXYZ=              0.0000 YYXZ=              0.1836 ZZXY=              0.0000
 N-N= 1.917640983433D+02 E-N=-2.837757395481D+03  KE= 1.032421849186D+03
 1\1\GINC-TRAPISTA\SP\RQCISD-FC\Aug-CC-pVTZ\C1Cl2O1\BRUNS\27-Nov-2021\0
 \\# qcisd/aug-cc-pvtz nosymm density=current output=wfn\\cl2co-wavefun
 ction\\0,1\O,0,0.,0.,0.683397\C,0,0.01,0.,-0.494687\Cl,0,0.,-1.44687,-
 1.469805\Cl,0,0.,1.44687,-1.469805\\Version=EM64L-G09RevB.01\HF=-1031.
 8027112\MP2=-1032.5821294\MP3=-1032.6011815\MP4D=-1032.6208494\MP4DQ=-
 1032.5983279\MP4SDQ=-1032.6073109\QCISD=-1032.6055796\RMSD=4.656e-09\D
 ipole=0.0040476,0.,-0.4875383\Quadrupole=0.1239308,0.6448228,-0.768753
 6,0.,0.0105792,0.\PG=CS [SG(C1O1),X(Cl2)]\\@

 Writing a WFN file to GAUSSIAN.wfn.


 WE ARE PERHAPS NOT FAR REMOVED FROM THE TIME WHEN WE SHALL BE ABLE TO SUBMIT
 THE BULK OF CHEMICAL PHENOMENA TO CALCULATION.

            -- JOSEPH LOUIS GAY-LUSSAC
               MEMOIRES DE LA SOCIETE D'ARCUEIL, 2, 207 (1808)
 Job cpu time:  0 days  2 hours  4 minutes 26.5 seconds.
 File lengths (MBytes):  RWF=  18183 Int=      0 D2E=      0 Chk=      3 Scr=      1
 Normal termination of Gaussian 09 at Sat Nov 27 12:48:30 2021.
