 cl2co-wavefunction
GAUSSIAN            192 MOL ORBITALS    372 PRIMITIVES        4 NUCLEI
  O    1    (CENTRE  1)   0.00000000  0.00000000  1.29143317  CHARGE =  8.0
  C    2    (CENTRE  2)   0.00000000  0.00000000 -0.93482295  CHARGE =  6.0
  Cl   3    (CENTRE  3)   0.01889726 -2.73418805 -2.77752892  CHARGE = 17.0
  Cl   4    (CENTRE  4)   0.00000000  2.73418805 -2.77752892  CHARGE = 17.0
CENTRE ASSIGNMENTS    1  1  1  1  1  1  1  1  1  1  1  1  1  1  1  1  1  1  1  1
CENTRE ASSIGNMENTS    1  1  1  1  1  1  1  1  1  1  1  1  1  1  1  1  1  1  1  1
CENTRE ASSIGNMENTS    1  1  1  1  1  1  1  1  1  1  1  1  1  1  1  1  1  1  1  1
CENTRE ASSIGNMENTS    1  1  1  1  1  1  1  1  1  1  1  1  2  2  2  2  2  2  2  2
CENTRE ASSIGNMENTS    2  2  2  2  2  2  2  2  2  2  2  2  2  2  2  2  2  2  2  2
CENTRE ASSIGNMENTS    2  2  2  2  2  2  2  2  2  2  2  2  2  2  2  2  2  2  2  2
CENTRE ASSIGNMENTS    2  2  2  2  2  2  2  2  2  2  2  2  2  2  2  2  2  2  2  2
CENTRE ASSIGNMENTS    2  2  2  2  3  3  3  3  3  3  3  3  3  3  3  3  3  3  3  3
CENTRE ASSIGNMENTS    3  3  3  3  3  3  3  3  3  3  3  3  3  3  3  3  3  3  3  3
CENTRE ASSIGNMENTS    3  3  3  3  3  3  3  3  3  3  3  3  3  3  3  3  3  3  3  3
CENTRE ASSIGNMENTS    3  3  3  3  3  3  3  3  3  3  3  3  3  3  3  3  3  3  3  3
CENTRE ASSIGNMENTS    3  3  3  3  3  3  3  3  3  3  3  3  3  3  3  3  3  3  3  3
CENTRE ASSIGNMENTS    3  3  3  3  3  3  3  3  3  3  3  3  3  3  3  3  3  3  4  4
CENTRE ASSIGNMENTS    4  4  4  4  4  4  4  4  4  4  4  4  4  4  4  4  4  4  4  4
CENTRE ASSIGNMENTS    4  4  4  4  4  4  4  4  4  4  4  4  4  4  4  4  4  4  4  4
CENTRE ASSIGNMENTS    4  4  4  4  4  4  4  4  4  4  4  4  4  4  4  4  4  4  4  4
CENTRE ASSIGNMENTS    4  4  4  4  4  4  4  4  4  4  4  4  4  4  4  4  4  4  4  4
CENTRE ASSIGNMENTS    4  4  4  4  4  4  4  4  4  4  4  4  4  4  4  4  4  4  4  4
CENTRE ASSIGNMENTS    4  4  4  4  4  4  4  4  4  4  4  4
TYPE ASSIGNMENTS      1  1  1  1  1  1  1  1  1  1  1  1  1  1  1  1  2  2  2  3
TYPE ASSIGNMENTS      3  3  4  4  4  2  3  4  2  3  4  2  3  4  5  6  7  8  9 10
TYPE ASSIGNMENTS      5  6  7  8  9 10  5  6  7  8  9 10 11 12 13 17 14 15 18 19
TYPE ASSIGNMENTS     16 20 11 12 13 17 14 15 18 19 16 20  1  1  1  1  1  1  1  1
TYPE ASSIGNMENTS      1  1  1  1  1  1  1  1  2  2  2  3  3  3  4  4  4  2  3  4
TYPE ASSIGNMENTS      2  3  4  2  3  4  5  6  7  8  9 10  5  6  7  8  9 10  5  6
TYPE ASSIGNMENTS      7  8  9 10 11 12 13 17 14 15 18 19 16 20 11 12 13 17 14 15
TYPE ASSIGNMENTS     18 19 16 20  1  1  1  1  1  1  1  1  1  1  1  1  1  1  1  1
TYPE ASSIGNMENTS      1  1  1  1  1  1  1  1  1  1  1  1  1  1  1  2  2  2  2  2
TYPE ASSIGNMENTS      2  3  3  3  3  3  3  4  4  4  4  4  4  2  2  2  2  2  2  3
TYPE ASSIGNMENTS      3  3  3  3  3  4  4  4  4  4  4  2  3  4  2  3  4  2  3  4
TYPE ASSIGNMENTS      5  6  7  8  9 10  5  6  7  8  9 10  5  6  7  8  9 10 11 12
TYPE ASSIGNMENTS     13 17 14 15 18 19 16 20 11 12 13 17 14 15 18 19 16 20  1  1
TYPE ASSIGNMENTS      1  1  1  1  1  1  1  1  1  1  1  1  1  1  1  1  1  1  1  1
TYPE ASSIGNMENTS      1  1  1  1  1  1  1  1  1  2  2  2  2  2  2  3  3  3  3  3
TYPE ASSIGNMENTS      3  4  4  4  4  4  4  2  2  2  2  2  2  3  3  3  3  3  3  4
TYPE ASSIGNMENTS      4  4  4  4  4  2  3  4  2  3  4  2  3  4  5  6  7  8  9 10
TYPE ASSIGNMENTS      5  6  7  8  9 10  5  6  7  8  9 10 11 12 13 17 14 15 18 19
TYPE ASSIGNMENTS     16 20 11 12 13 17 14 15 18 19 16 20
EXPONENTS  0.1533000D+05 0.2299000D+04 0.5224000D+03 0.1473000D+03 0.4755000D+02
EXPONENTS  0.1676000D+02 0.6207000D+01 0.5224000D+03 0.1473000D+03 0.4755000D+02
EXPONENTS  0.1676000D+02 0.6207000D+01 0.6882000D+00 0.1752000D+01 0.2384000D+00
EXPONENTS  0.7376000D-01 0.3446000D+02 0.7749000D+01 0.2280000D+01 0.3446000D+02
EXPONENTS  0.7749000D+01 0.2280000D+01 0.3446000D+02 0.7749000D+01 0.2280000D+01
EXPONENTS  0.7156000D+00 0.7156000D+00 0.7156000D+00 0.2140000D+00 0.2140000D+00
EXPONENTS  0.2140000D+00 0.5974000D-01 0.5974000D-01 0.5974000D-01 0.2314000D+01
EXPONENTS  0.2314000D+01 0.2314000D+01 0.2314000D+01 0.2314000D+01 0.2314000D+01
EXPONENTS  0.6450000D+00 0.6450000D+00 0.6450000D+00 0.6450000D+00 0.6450000D+00
EXPONENTS  0.6450000D+00 0.2140000D+00 0.2140000D+00 0.2140000D+00 0.2140000D+00
EXPONENTS  0.2140000D+00 0.2140000D+00 0.1428000D+01 0.1428000D+01 0.1428000D+01
EXPONENTS  0.1428000D+01 0.1428000D+01 0.1428000D+01 0.1428000D+01 0.1428000D+01
EXPONENTS  0.1428000D+01 0.1428000D+01 0.5000000D+00 0.5000000D+00 0.5000000D+00
EXPONENTS  0.5000000D+00 0.5000000D+00 0.5000000D+00 0.5000000D+00 0.5000000D+00
EXPONENTS  0.5000000D+00 0.5000000D+00 0.8236000D+04 0.1235000D+04 0.2808000D+03
EXPONENTS  0.7927000D+02 0.2559000D+02 0.8997000D+01 0.3319000D+01 0.2808000D+03
EXPONENTS  0.7927000D+02 0.2559000D+02 0.8997000D+01 0.3319000D+01 0.3643000D+00
EXPONENTS  0.9059000D+00 0.1285000D+00 0.4402000D-01 0.1871000D+02 0.4133000D+01
EXPONENTS  0.1200000D+01 0.1871000D+02 0.4133000D+01 0.1200000D+01 0.1871000D+02
EXPONENTS  0.4133000D+01 0.1200000D+01 0.3827000D+00 0.3827000D+00 0.3827000D+00
EXPONENTS  0.1209000D+00 0.1209000D+00 0.1209000D+00 0.3569000D-01 0.3569000D-01
EXPONENTS  0.3569000D-01 0.1097000D+01 0.1097000D+01 0.1097000D+01 0.1097000D+01
EXPONENTS  0.1097000D+01 0.1097000D+01 0.3180000D+00 0.3180000D+00 0.3180000D+00
EXPONENTS  0.3180000D+00 0.3180000D+00 0.3180000D+00 0.1000000D+00 0.1000000D+00
EXPONENTS  0.1000000D+00 0.1000000D+00 0.1000000D+00 0.1000000D+00 0.7610000D+00
EXPONENTS  0.7610000D+00 0.7610000D+00 0.7610000D+00 0.7610000D+00 0.7610000D+00
EXPONENTS  0.7610000D+00 0.7610000D+00 0.7610000D+00 0.7610000D+00 0.2680000D+00
EXPONENTS  0.2680000D+00 0.2680000D+00 0.2680000D+00 0.2680000D+00 0.2680000D+00
EXPONENTS  0.2680000D+00 0.2680000D+00 0.2680000D+00 0.2680000D+00 0.4561000D+06
EXPONENTS  0.6833000D+05 0.1555000D+05 0.4405000D+04 0.1439000D+04 0.5204000D+03
EXPONENTS  0.2031000D+03 0.8396000D+02 0.3620000D+02 0.1583000D+02 0.6334000D+01
EXPONENTS  0.4405000D+04 0.1439000D+04 0.5204000D+03 0.2031000D+03 0.8396000D+02
EXPONENTS  0.3620000D+02 0.1583000D+02 0.6334000D+01 0.2694000D+01 0.1439000D+04
EXPONENTS  0.2031000D+03 0.8396000D+02 0.3620000D+02 0.1583000D+02 0.6334000D+01
EXPONENTS  0.2694000D+01 0.4313000D+00 0.9768000D+00 0.1625000D+00 0.5910000D-01
EXPONENTS  0.6633000D+03 0.1568000D+03 0.4998000D+02 0.1842000D+02 0.7240000D+01
EXPONENTS  0.2922000D+01 0.6633000D+03 0.1568000D+03 0.4998000D+02 0.1842000D+02
EXPONENTS  0.7240000D+01 0.2922000D+01 0.6633000D+03 0.1568000D+03 0.4998000D+02
EXPONENTS  0.1842000D+02 0.7240000D+01 0.2922000D+01 0.1568000D+03 0.4998000D+02
EXPONENTS  0.1842000D+02 0.7240000D+01 0.2922000D+01 0.3818000D+00 0.1568000D+03
EXPONENTS  0.4998000D+02 0.1842000D+02 0.7240000D+01 0.2922000D+01 0.3818000D+00
EXPONENTS  0.1568000D+03 0.4998000D+02 0.1842000D+02 0.7240000D+01 0.2922000D+01
EXPONENTS  0.3818000D+00 0.1022000D+01 0.1022000D+01 0.1022000D+01 0.1301000D+00
EXPONENTS  0.1301000D+00 0.1301000D+00 0.4190000D-01 0.4190000D-01 0.4190000D-01
EXPONENTS  0.1046000D+01 0.1046000D+01 0.1046000D+01 0.1046000D+01 0.1046000D+01
EXPONENTS  0.1046000D+01 0.3440000D+00 0.3440000D+00 0.3440000D+00 0.3440000D+00
EXPONENTS  0.3440000D+00 0.3440000D+00 0.1350000D+00 0.1350000D+00 0.1350000D+00
EXPONENTS  0.1350000D+00 0.1350000D+00 0.1350000D+00 0.7060000D+00 0.7060000D+00
EXPONENTS  0.7060000D+00 0.7060000D+00 0.7060000D+00 0.7060000D+00 0.7060000D+00
EXPONENTS  0.7060000D+00 0.7060000D+00 0.7060000D+00 0.3120000D+00 0.3120000D+00
EXPONENTS  0.3120000D+00 0.3120000D+00 0.3120000D+00 0.3120000D+00 0.3120000D+00
EXPONENTS  0.3120000D+00 0.3120000D+00 0.3120000D+00 0.4561000D+06 0.6833000D+05
EXPONENTS  0.1555000D+05 0.4405000D+04 0.1439000D+04 0.5204000D+03 0.2031000D+03
EXPONENTS  0.8396000D+02 0.3620000D+02 0.1583000D+02 0.6334000D+01 0.4405000D+04
EXPONENTS  0.1439000D+04 0.5204000D+03 0.2031000D+03 0.8396000D+02 0.3620000D+02
EXPONENTS  0.1583000D+02 0.6334000D+01 0.2694000D+01 0.1439000D+04 0.2031000D+03
EXPONENTS  0.8396000D+02 0.3620000D+02 0.1583000D+02 0.6334000D+01 0.2694000D+01
EXPONENTS  0.4313000D+00 0.9768000D+00 0.1625000D+00 0.5910000D-01 0.6633000D+03
EXPONENTS  0.1568000D+03 0.4998000D+02 0.1842000D+02 0.7240000D+01 0.2922000D+01
EXPONENTS  0.6633000D+03 0.1568000D+03 0.4998000D+02 0.1842000D+02 0.7240000D+01
EXPONENTS  0.2922000D+01 0.6633000D+03 0.1568000D+03 0.4998000D+02 0.1842000D+02
EXPONENTS  0.7240000D+01 0.2922000D+01 0.1568000D+03 0.4998000D+02 0.1842000D+02
EXPONENTS  0.7240000D+01 0.2922000D+01 0.3818000D+00 0.1568000D+03 0.4998000D+02
EXPONENTS  0.1842000D+02 0.7240000D+01 0.2922000D+01 0.3818000D+00 0.1568000D+03
EXPONENTS  0.4998000D+02 0.1842000D+02 0.7240000D+01 0.2922000D+01 0.3818000D+00
EXPONENTS  0.1022000D+01 0.1022000D+01 0.1022000D+01 0.1301000D+00 0.1301000D+00
EXPONENTS  0.1301000D+00 0.4190000D-01 0.4190000D-01 0.4190000D-01 0.1046000D+01
EXPONENTS  0.1046000D+01 0.1046000D+01 0.1046000D+01 0.1046000D+01 0.1046000D+01
EXPONENTS  0.3440000D+00 0.3440000D+00 0.3440000D+00 0.3440000D+00 0.3440000D+00
EXPONENTS  0.3440000D+00 0.1350000D+00 0.1350000D+00 0.1350000D+00 0.1350000D+00
EXPONENTS  0.1350000D+00 0.1350000D+00 0.7060000D+00 0.7060000D+00 0.7060000D+00
EXPONENTS  0.7060000D+00 0.7060000D+00 0.7060000D+00 0.7060000D+00 0.7060000D+00
EXPONENTS  0.7060000D+00 0.7060000D+00 0.3120000D+00 0.3120000D+00 0.3120000D+00
EXPONENTS  0.3120000D+00 0.3120000D+00 0.3120000D+00 0.3120000D+00 0.3120000D+00
EXPONENTS  0.3120000D+00 0.3120000D+00
MO    1     MO 0.0        OCC NO =    2.0000387  ORB. ENERGY =    0.000000
 -0.11046499D-05 -0.20588857D-05 -0.34911300D-05 -0.52834541D-05 -0.65906925D-05
 -0.56557947D-05 -0.21658689D-05 -0.19837778D-09 -0.21284634D-08 -0.78459170D-08
 -0.22941001D-07 -0.27645022D-07  0.33301358D-07 -0.10477470D-06 -0.11771872D-07
 -0.47544809D-07 -0.30280877D-05 -0.29362265D-05 -0.19807610D-05  0.87626657D-03
  0.84968381D-03  0.57319168D-03 -0.28866445D-06 -0.27990741D-06 -0.18882389D-06
 -0.32549339D-05  0.94198287D-03 -0.13010487D-06 -0.26256511D-05  0.75997334D-03
 -0.10697260D-06 -0.68543536D-07  0.19846348D-04 -0.19373019D-08 -0.50530710D-07
  0.63765443D-07 -0.13234733D-07  0.72290833D-05 -0.69222003D-06  0.20042992D-03
  0.29315348D-07 -0.62479051D-07  0.33163703D-07 -0.43792477D-05 -0.24432588D-06
  0.70668163D-04 -0.77668518D-08 -0.84900274D-08  0.16256879D-07 -0.13223405D-05
  0.38749241D-06 -0.11215487D-03  0.76848714D-06  0.14729878D-03 -0.88657738D-08
 -0.30639471D-05 -0.22239398D-03  0.30830471D-07  0.75848565D-06 -0.21950236D-03
 -0.42331496D-08 -0.81659347D-05 -0.69274020D-06  0.10266873D-04 -0.44578462D-08
  0.12791066D-05  0.20048005D-03 -0.24653778D-07  0.79911405D-06 -0.23128067D-03
  0.38027317D-07  0.50211731D-05  0.68273851D-06  0.12727621D-05  0.21511414D-05
  0.32335667D-05  0.39718575D-05  0.33521076D-05  0.12604800D-05  0.77278933D-09
  0.57761214D-08  0.21586685D-07  0.60223489D-07  0.80682872D-07 -0.95271427D-07
  0.19586113D-07 -0.12014282D-08 -0.16569538D-07  0.38316878D-05  0.35924509D-05
  0.25580390D-05 -0.11087656D-02 -0.10395382D-02 -0.74021313D-03 -0.22136895D-06
 -0.20754746D-06 -0.14778615D-06  0.49756601D-06 -0.14393674D-03 -0.17625532D-06
  0.24763243D-06 -0.71702456D-04  0.45074616D-07 -0.30214082D-07  0.87400975D-05
  0.35184257D-08  0.12212497D-07 -0.14693665D-06  0.13472415D-06  0.46228679D-06
  0.63568551D-06 -0.18403702D-03 -0.19669770D-07  0.62508133D-07 -0.42838363D-07
  0.12911037D-05  0.25727306D-06 -0.74518016D-04  0.53066227D-09 -0.19959338D-07
  0.19428675D-07 -0.76221272D-07  0.18880126D-06 -0.54664820D-04  0.12852821D-06
 -0.25495163D-03 -0.30903611D-07  0.23857603D-05 -0.37237925D-04  0.46318501D-07
 -0.27713449D-05  0.80209283D-03  0.46392331D-07 -0.94906115D-06  0.94087375D-07
  0.25893179D-03  0.16266338D-07 -0.28722230D-05 -0.27206800D-04 -0.34092615D-07
  0.25899609D-05 -0.74958857D-03 -0.14706399D-07  0.43511523D-05  0.27089676D-03
  0.50681893D-03  0.87567069D-03  0.14195651D-02  0.21557458D-02  0.29962838D-02
  0.35623519D-02  0.31734668D-02  0.15760107D-02  0.25372439D-03  0.26769422D-05
  0.15765301D-05  0.52590404D-04  0.18326703D-03  0.65997425D-03  0.14548311D-02
  0.20479326D-02 -0.97693061D-04 -0.26800755D-02 -0.15847119D-02 -0.27584231D-06
 -0.33411240D-05 -0.69675618D-05 -0.19981754D-04 -0.10376247D-05  0.86171015D-04
  0.22264935D-03 -0.18140421D-03 -0.81654431D-04  0.10099008D-03  0.57207560D-04
 -0.70433566D-02 -0.92777483D-02 -0.10234809D-01 -0.85008100D-02 -0.45141660D-02
 -0.11646784D-02  0.46631348D+01  0.61424394D+01  0.67760722D+01  0.56280585D+01
  0.29886552D+01  0.77108868D+00 -0.67677500D+01 -0.89147099D+01 -0.98343205D+01
 -0.81681732D+01 -0.43375266D+01 -0.11191045D+01  0.35233922D-06 -0.34061888D-05
 -0.48030818D-05 -0.68696776D-05  0.34787080D-07  0.63001423D-05 -0.23740179D-03
  0.22950478D-02  0.32362570D-02  0.46287036D-02 -0.23439103D-04 -0.42449577D-02
  0.33421809D-03 -0.32310054D-02 -0.45560549D-02 -0.65163638D-02  0.32997949D-04
  0.59761202D-02 -0.44429866D-04  0.29928559D-01 -0.43657511D-01 -0.31683570D-07
 -0.34404283D-03  0.55701775D-03 -0.66479929D-08 -0.10940134D-04  0.17205501D-04
  0.14427344D-04  0.74744694D-03 -0.76187429D-03 -0.59176736D-05  0.89019105D-05
 -0.68702880D-03 -0.58532236D-04 -0.43204665D-03  0.49057889D-03  0.31529624D-05
 -0.56790476D-05  0.35220544D-03 -0.47700623D-05  0.18131369D-05  0.29569255D-05
 -0.73861961D-07 -0.23879874D-06  0.48971712D-05  0.16925283D-06  0.13860771D-04
  0.26191173D-05 -0.10135923D-05 -0.18504208D-04 -0.37023749D-04  0.50583385D-06
 -0.23078106D-04  0.29166397D-04 -0.47754324D-06  0.21010151D-06 -0.75051599D-04
  0.42087123D-04  0.17474566D-05 -0.11424993D-04 -0.51363495D-04 -0.23777612D-05
  0.23657979D-03 -0.74897875D-04 -0.16505829D-05 -0.27003439D-03 -0.50520553D-03
 -0.87288310D-03 -0.14150461D-02 -0.21488832D-02 -0.29867455D-02 -0.35510115D-02
 -0.31633645D-02 -0.15709937D-02 -0.25291669D-03 -0.26684205D-05 -0.15723948D-05
 -0.52452458D-04 -0.18278631D-03 -0.65824311D-03 -0.14510150D-02 -0.20425608D-02
  0.97436809D-04  0.26730456D-02  0.15805551D-02  0.27586748D-06  0.33414289D-05
  0.69681977D-05  0.19983578D-04  0.10377194D-05 -0.86178880D-04 -0.22266967D-03
  0.18142077D-03  0.81455685D-04 -0.10093062D-03 -0.57150345D-04 -0.25192616D-01
 -0.33184568D-01 -0.36607773D-01 -0.30405622D-01 -0.16146229D-01 -0.41658115D-02
  0.46645344D+01  0.61442830D+01  0.67781059D+01  0.56297477D+01  0.29895522D+01
  0.77132010D+00  0.67701855D+01  0.89179180D+01  0.98378595D+01  0.81711126D+01
  0.43390876D+01  0.11195073D+01  0.12887905D-05 -0.12459197D-04 -0.17568768D-04
 -0.25127986D-04  0.12724459D-06  0.23044733D-04 -0.23746293D-03  0.22956389D-02
  0.32370904D-02  0.46298956D-02 -0.23445140D-04 -0.42460510D-02 -0.33433711D-03
  0.32321561D-02  0.45576774D-02  0.65186844D-02 -0.33009700D-04 -0.59782484D-02
 -0.16246515D-03  0.29937553D-01  0.43673304D-01  0.24094796D-05 -0.34409602D-03
 -0.55710368D-03  0.82258464D-07 -0.10943641D-04 -0.17207288D-04 -0.14430450D-04
 -0.74761598D-03  0.76204643D-03  0.42153934D-05 -0.41540392D-05 -0.68719869D-03
  0.58534480D-04  0.43216707D-03 -0.49070155D-03 -0.20109514D-05  0.32449679D-05
  0.35240479D-03  0.47713038D-05 -0.18260779D-05 -0.29452259D-05  0.17235173D-07
  0.20479462D-06  0.48944845D-05 -0.41429036D-07  0.13851392D-04 -0.26235149D-05
  0.47039672D-06 -0.18500097D-04  0.37027972D-04 -0.34610961D-06 -0.23054078D-04
 -0.29157427D-04  0.43702327D-06 -0.13119932D-06 -0.75076697D-04 -0.42085188D-04
 -0.34886221D-06 -0.11411401D-04  0.51392183D-04  0.74246018D-06  0.23664149D-03
  0.74863380D-04 -0.19755789D-05
MO    2     MO 0.0        OCC NO =    2.0000377  ORB. ENERGY =    0.000000
  0.55202158D-02  0.10288775D-01  0.17446063D-01  0.26402762D-01  0.32935364D-01
  0.28263442D-01  0.10823397D-01  0.87472999D-06  0.93852788D-05  0.34595905D-04
  0.10115640D-03  0.12189838D-03 -0.14683951D-03  0.54198343D-03  0.20354606D-03
  0.29995746D-03 -0.11612375D-06 -0.11260097D-06 -0.75959950D-07  0.39880454D-07
  0.38670625D-07  0.26086975D-07  0.15917311D-02  0.15434437D-02  0.10411980D-02
 -0.15832517D-05  0.13111492D-06  0.58575875D-03 -0.35436768D-05  0.10649580D-06
  0.49680673D-03 -0.26444678D-06  0.26956326D-08  0.10501819D-04  0.13188487D-03
 -0.21759952D-03  0.85714657D-04  0.24166255D-05 -0.29650228D-05  0.30667397D-07
 -0.76429473D-04  0.24751962D-03 -0.17109015D-03 -0.22396636D-05  0.12816578D-05
 -0.42040002D-09  0.58110635D-04  0.22129255D-04 -0.80239890D-04  0.24845931D-06
  0.54712193D-06 -0.14004005D-07  0.43516766D-06  0.15766758D-07  0.32966417D-04
 -0.14844428D-05 -0.34306442D-07 -0.37569146D-04  0.17893984D-06 -0.12993833D-07
 -0.61330106D-04  0.16276732D-06 -0.35823821D-06  0.25977726D-08  0.34714220D-04
  0.62724719D-06  0.26508326D-07  0.32389455D-04  0.44746743D-06 -0.34301644D-07
 -0.13653212D-03  0.11683439D-05 -0.38865784D-02 -0.72453651D-02 -0.12245654D-01
 -0.18407502D-01 -0.22610319D-01 -0.19082312D-01 -0.71754476D-02 -0.41660070D-05
 -0.31138321D-04 -0.11637102D-03 -0.32465702D-03 -0.43495090D-03  0.51359591D-03
 -0.10465938D-03 -0.12406657D-04  0.85663143D-04 -0.48403599D-06 -0.45381451D-06
 -0.32314296D-06 -0.97809872D-07 -0.91702972D-07 -0.65297979D-07  0.97959638D-03
  0.91843387D-03  0.65397963D-03 -0.38945835D-06 -0.37757263D-07  0.82768373D-03
  0.78892419D-06  0.24490902D-08 -0.20428334D-03  0.73955157D-07  0.20039675D-08
 -0.21912359D-04 -0.68408994D-04  0.68317181D-03 -0.61476282D-03 -0.51943681D-05
  0.12647558D-05 -0.39545831D-07  0.82278244D-04 -0.16596934D-03  0.83691098D-04
  0.17158940D-05  0.20779571D-05 -0.99704969D-08 -0.12936218D-06  0.11551900D-03
 -0.11538964D-03 -0.79931451D-06  0.69175565D-06 -0.97873290D-08  0.58063503D-06
 -0.36074676D-07  0.13660505D-03  0.35934631D-06  0.32096403D-09 -0.17573436D-03
 -0.21012514D-05  0.10790306D-06 -0.23408080D-03  0.40310128D-06 -0.23544916D-06
  0.37224932D-07 -0.68571250D-04 -0.12952839D-05  0.67061777D-09  0.94796070D-04
  0.20016314D-05 -0.11234541D-06  0.11091768D-03 -0.11070274D-06 -0.14773709D-02
 -0.27640033D-02 -0.47755846D-02 -0.77417838D-02 -0.11756642D-01 -0.16340626D-01
 -0.19427752D-01 -0.17306916D-01 -0.85949806D-02 -0.13837192D-02 -0.14599055D-04
 -0.72293336D-05 -0.24115847D-03 -0.84038897D-03 -0.30263768D-02 -0.66712710D-02
 -0.93909964D-02  0.44798113D-03  0.12289750D-01  0.72668520D-02  0.91792560D-07
  0.11118321D-05  0.23186086D-05  0.66493657D-05  0.34529230D-06 -0.28675290D-04
 -0.74091441D-04  0.60366219D-04  0.32810264D-03 -0.19061245D-03 -0.16750382D-03
 -0.70062218D-02 -0.92288331D-02 -0.10180848D-01 -0.84559911D-02 -0.44903659D-02
 -0.11585379D-02  0.41046513D+01  0.54067859D+01  0.59645312D+01  0.49540102D+01
  0.26307169D+01  0.67873871D+00 -0.71192069D+01 -0.93776609D+01 -0.10345028D+02
 -0.85923556D+01 -0.45627793D+01 -0.11772209D+01  0.22441765D-06 -0.21695254D-05
 -0.30592573D-05 -0.43755473D-05  0.22157155D-07  0.40127895D-05 -0.17590453D-03
  0.17005319D-02  0.23979274D-02  0.34296706D-02 -0.17367369D-04 -0.31453314D-02
  0.33303719D-03 -0.32195892D-02 -0.45399569D-02 -0.64933394D-02  0.32881356D-04
  0.59550046D-02 -0.43664833D-04  0.26404995D-01 -0.46095498D-01  0.12500248D-05
 -0.16705259D-03  0.22051610D-03  0.73389319D-07 -0.11655625D-04  0.71545618D-05
  0.22330142D-04  0.42866114D-03 -0.45099129D-03 -0.42768238D-05  0.43635758D-05
 -0.39956113D-03  0.47063694D-05 -0.27393061D-03  0.26922424D-03  0.17927311D-05
 -0.32396201D-05  0.44941360D-03 -0.66259490D-06  0.38074292D-04 -0.37411697D-04
 -0.27477863D-06  0.57073465D-06 -0.16764519D-04 -0.10723179D-06 -0.32795576D-04
  0.10025972D-04  0.10657058D-05  0.51254436D-04  0.52353084D-05 -0.74401044D-06
  0.47132292D-04 -0.35313226D-04 -0.15472631D-06 -0.48080149D-07 -0.48118461D-04
 -0.13478525D-04  0.51277783D-06  0.14143505D-04 -0.40036097D-04 -0.36853738D-06
  0.13021188D-03  0.80471671D-04 -0.11596058D-05 -0.14779665D-02 -0.27651176D-02
 -0.47775099D-02 -0.77449049D-02 -0.11761381D-01 -0.16347213D-01 -0.19435584D-01
 -0.17313894D-01 -0.85984457D-02 -0.13842770D-02 -0.14604940D-04 -0.72322144D-05
 -0.24125457D-03 -0.84072386D-03 -0.30275827D-02 -0.66739294D-02 -0.93947386D-02
  0.44815965D-03  0.12294647D-01  0.72697478D-02  0.91822341D-07  0.11121928D-05
  0.23193608D-05  0.66515230D-05  0.34540433D-06 -0.28684593D-04 -0.74115479D-04
  0.60385804D-04  0.32827289D-03 -0.19066872D-03 -0.16753046D-03  0.21353396D-01
  0.28127418D-01  0.31028945D-01  0.25771969D-01  0.13685630D-01  0.35309642D-02
 -0.41030342D+01 -0.54046559D+01 -0.59621814D+01 -0.49520585D+01 -0.26296805D+01
 -0.67847131D+00 -0.71168362D+01 -0.93745381D+01 -0.10341583D+02 -0.85894944D+01
 -0.45612599D+01 -0.11768289D+01 -0.99086627D-06  0.95790575D-05  0.13507471D-04
  0.19319257D-04 -0.97829997D-07 -0.17717581D-04  0.17582437D-03 -0.16997568D-02
 -0.23968346D-02 -0.34281075D-02  0.17359454D-04  0.31438979D-02  0.33292333D-03
 -0.32184885D-02 -0.45384048D-02 -0.64911194D-02  0.32870115D-04  0.59529687D-02
  0.13877084D-03 -0.26394594D-01 -0.46080222D-01  0.96364450D-07  0.16693873D-03
  0.22031880D-03 -0.71350455D-08  0.11651792D-04  0.71475783D-05  0.22315764D-04
  0.42842959D-03 -0.45074535D-03 -0.13384745D-05  0.16005557D-05  0.39932693D-03
  0.47232632D-05 -0.27380071D-03  0.26907745D-03  0.20582008D-05 -0.13240674D-06
 -0.44931801D-03 -0.66167891D-06  0.38074197D-04 -0.37412519D-04 -0.26067692D-06
  0.45493985D-06  0.16766196D-04  0.24702618D-06  0.32804282D-04  0.10025532D-04
 -0.32271510D-06 -0.51266310D-04  0.52448848D-05 -0.41836344D-06 -0.47146536D-04
 -0.35321480D-04  0.71534968D-06  0.49632886D-07  0.48095405D-04 -0.13491381D-04
 -0.68056759D-06 -0.14145512D-04 -0.40023754D-04  0.53166893D-06 -0.13014070D-03
  0.80497896D-04 -0.50686602D-06
MO    3     MO 0.0        OCC NO =    2.0000335  ORB. ENERGY =    0.000000
 -0.14305302D-08 -0.26662730D-08 -0.45210406D-08 -0.68421142D-08 -0.85349982D-08
 -0.73242982D-08 -0.28048171D-08 -0.61736821D-12 -0.66239557D-11 -0.24417148D-10
 -0.71394309D-10 -0.86033614D-10  0.10363660D-09 -0.10045725D-09  0.18293038D-09
  0.58067133D-10  0.10149895D-06  0.98419841D-07  0.66393443D-07  0.67700106D-05
  0.65646330D-05  0.44284626D-05  0.57108703D-10  0.55376232D-10  0.37356479D-10
  0.29848872D-07  0.19441568D-05 -0.13844733D-09 -0.11001090D-07  0.74837064D-05
 -0.83432408D-10 -0.19104246D-08  0.74477484D-06 -0.13877623D-11  0.39822943D-06
 -0.39823157D-06  0.21442781D-11 -0.11525206D-03  0.10164799D-08  0.66167702D-05
  0.11507961D-06 -0.11511514D-06  0.35529940D-10 -0.33298231D-04 -0.30892539D-09
 -0.34079660D-05 -0.54836537D-06  0.54835022D-06  0.15152365D-10  0.15868513D-03
  0.72721508D-09 -0.16885086D-05 -0.11892393D-07 -0.11008290D-05 -0.20336168D-10
  0.47336260D-07  0.39744966D-05 -0.27006782D-05 -0.11659082D-07 -0.67200953D-06
  0.27007392D-05  0.78152727D-03  0.38861169D-08  0.32697970D-06 -0.36079546D-11
 -0.18012495D-07 -0.14458552D-05  0.84008947D-06  0.63541447D-08  0.46491615D-06
 -0.84007864D-06 -0.24310524D-03  0.59342153D-08  0.11062573D-07  0.18697255D-07
  0.28105462D-07  0.34522526D-07  0.29135794D-07  0.10955819D-07  0.13290941D-11
  0.99341550D-11  0.37126205D-10  0.10357633D-09  0.13876373D-09 -0.16385409D-09
  0.46088766D-09 -0.17787173D-09 -0.12895364D-10 -0.12751027D-06 -0.11954898D-06
 -0.85125996D-07 -0.90091723D-05 -0.84466717D-05 -0.60145335D-05  0.21492029D-09
  0.20150143D-09  0.14348102D-09 -0.25770486D-07 -0.70937421D-06 -0.17457228D-09
  0.16581867D-07 -0.52827667D-05  0.41462937D-10  0.14220983D-08 -0.47481578D-06
 -0.24677375D-11  0.41588047D-05 -0.41588648D-05  0.60066595D-10 -0.12034898D-02
  0.39179425D-07  0.31039770D-06 -0.15856653D-06  0.15864591D-06 -0.79378954D-10
  0.45906130D-04 -0.27700083D-08 -0.56216438D-05  0.24979264D-06 -0.24977704D-06
 -0.15605266D-10 -0.72283754D-04  0.35845076D-08 -0.11277543D-05  0.11700482D-07
  0.42141739D-06 -0.46329682D-10 -0.19981552D-07 -0.17998808D-05 -0.12107615D-05
 -0.15119894D-07  0.53562860D-06  0.12109005D-05  0.35038845D-03 -0.72619936D-08
  0.45682979D-07  0.32811512D-11  0.13694411D-07  0.15561045D-05  0.12262502D-05
  0.80915697D-08 -0.16931535D-05 -0.12262601D-05 -0.35486498D-03 -0.55031703D-04
 -0.10295844D-03 -0.17788935D-03 -0.28837954D-03 -0.43793201D-03 -0.60868429D-03
 -0.72367898D-03 -0.64467838D-03 -0.32016092D-03 -0.51543199D-04 -0.54381120D-06
 -0.25754341D-06 -0.85912169D-05 -0.29938671D-04 -0.10781400D-03 -0.23766255D-03
 -0.33455217D-03  0.15959229D-04  0.43781961D-03  0.25887999D-03 -0.49368594D-08
 -0.59797423D-07 -0.12470122D-06 -0.35762139D-06 -0.18570781D-07  0.15422369D-05
  0.39848439D-05 -0.32466633D-05  0.14740655D-04 -0.69819384D-06 -0.22054945D-05
 -0.82138987D+01 -0.10819626D+02 -0.11935741D+02 -0.99135676D+01 -0.52643795D+01
 -0.13582374D+01 -0.54525299D-01 -0.71822574D-01 -0.79231542D-01 -0.65807999D-01
 -0.34945874D-01 -0.90162181D-02 -0.29027063D-01 -0.38235433D-01 -0.42179668D-01
 -0.35033517D-01 -0.18603769D-01 -0.47998698D-02  0.35885251D-03 -0.34691552D-02
 -0.48918709D-02 -0.69966695D-02  0.35430149D-04  0.64166058D-02  0.24764472D-05
 -0.23940698D-04 -0.33758884D-04 -0.48284134D-04  0.24450406D-06  0.44281105D-04
  0.13566040D-05 -0.13114775D-04 -0.18493201D-04 -0.26450170D-04  0.13393994D-06
  0.24257300D-04 -0.53686653D-01 -0.35904161D-03 -0.19221094D-03  0.42411186D-03
  0.24313104D-05 -0.21146902D-06  0.15167397D-04  0.14228085D-06 -0.46577276D-07
  0.66308920D-05 -0.55806826D-05 -0.10502094D-05 -0.90720794D-03 -0.51073908D-03
 -0.48313401D-05 -0.39013158D-05  0.30873688D-05  0.81394705D-06  0.47172301D-03
  0.31781762D-03  0.48977302D-05  0.30850841D-06  0.38704482D-07 -0.34721290D-06
 -0.21548382D-04 -0.36869968D-04 -0.43716760D-06 -0.22742349D-04 -0.52353489D-06
  0.45581539D-06 -0.41981272D-04  0.61791516D-06 -0.11136797D-05  0.11020832D-03
  0.95268950D-06 -0.25376645D-06 -0.96334246D-05 -0.17565335D-04  0.59391623D-06
 -0.36577195D-06  0.90578998D-04 -0.20766021D-05 -0.67183635D-06 -0.37882992D-04
  0.29485338D-06  0.17691522D-05  0.14739261D-03  0.55039389D-04  0.10297282D-03
  0.17791420D-03  0.28841982D-03  0.43799317D-03  0.60876930D-03  0.72378006D-03
  0.64476842D-03  0.32020563D-03  0.51550398D-04  0.54388715D-06  0.25757913D-06
  0.85924085D-05  0.29942824D-04  0.10782896D-03  0.23769551D-03  0.33459857D-03
 -0.15961442D-04 -0.43788033D-03 -0.25891590D-03  0.49378898D-08  0.59809904D-07
  0.12472725D-06  0.35769603D-06  0.18574657D-07 -0.15425588D-05 -0.39856756D-05
  0.32473409D-05 -0.14742886D-04  0.69830064D-06  0.22055174D-05  0.82142173D+01
  0.10820046D+02  0.11936204D+02  0.99139522D+01  0.52645837D+01  0.13582901D+01
  0.22445061D-02  0.29565396D-02  0.32615260D-02  0.27089527D-02  0.14385291D-02
  0.37114802D-03  0.29027319D-01  0.38235769D-01  0.42180038D-01  0.35033825D-01
  0.18603933D-01  0.47999119D-02 -0.35886845D-03  0.34693092D-02  0.48920881D-02
  0.69969802D-02 -0.35431723D-04 -0.64168908D-02 -0.37453655D-08  0.36207784D-07
  0.51056755D-07  0.73024665D-07 -0.36978663D-09 -0.66970505D-07 -0.13566185D-05
  0.13114915D-04  0.18493399D-04  0.26450453D-04 -0.13394137D-06 -0.24257560D-04
  0.53688829D-01  0.12010033D-04  0.19221294D-03 -0.42412116D-03 -0.49995880D-06
  0.21141739D-06 -0.15167544D-04  0.37454618D-07  0.46580657D-07 -0.36043003D-06
 -0.68985217D-06  0.10502822D-05 -0.90730140D-03  0.51078075D-03 -0.13011710D-05
  0.64088134D-06  0.17315975D-06 -0.81404110D-06  0.47180591D-03 -0.31787231D-03
  0.27011985D-05 -0.15956886D-06 -0.18763072D-06  0.34719957D-06 -0.21549634D-04
  0.36872606D-04 -0.18230278D-06  0.22741469D-04 -0.23333025D-06 -0.45580976D-06
  0.41988666D-04  0.50906266D-06  0.11801993D-05 -0.11021307D-03  0.19092809D-06
  0.18723002D-06 -0.96123297D-05  0.17575490D-04 -0.32226636D-07  0.36576323D-06
 -0.90604648D-04 -0.46007130D-06 -0.34691459D-06  0.37878177D-04  0.55675120D-06
 -0.75037509D-06  0.14742373D-03
MO    4     MO 0.0        OCC NO =    2.0000300  ORB. ENERGY =    0.000000
  0.54522861D-04  0.10162165D-03  0.17231378D-03  0.26077859D-03  0.32530073D-03
  0.27915643D-03  0.10690208D-03  0.31251884D-07  0.33531221D-06  0.12360239D-05
  0.36140615D-05  0.43551198D-05 -0.52462033D-05  0.37993551D-05 -0.13467795D-05
  0.67498356D-07 -0.52014707D-02 -0.50436769D-02 -0.34024346D-02 -0.17974465D-04
 -0.17429185D-04 -0.11757625D-04  0.30503211D-05  0.29577854D-05  0.19953046D-05
 -0.14815084D-02 -0.51195836D-05  0.22617390D-05 -0.31072340D-03 -0.10737939D-05
 -0.51177096D-07  0.14433104D-04  0.49877855D-07  0.19113034D-07  0.18116127D-05
 -0.16289395D-05 -0.18267318D-06  0.18366237D-07 -0.38617591D-03 -0.13344731D-05
 -0.10330775D-05  0.70092983D-06  0.33214771D-06 -0.95163009D-08  0.17474867D-03
  0.60378847D-06 -0.54083659D-06  0.11218386D-05 -0.58100206D-06 -0.11742154D-07
  0.27511156D-04  0.95077888D-07  0.63078993D-04 -0.11504259D-05 -0.15744499D-05
 -0.33289064D-03  0.29547716D-05 -0.81167343D-06  0.14365366D-03  0.49650627D-06
  0.55350231D-05 -0.47065480D-07 -0.26687872D-04  0.47961222D-06  0.64274290D-06
  0.13878745D-03 -0.12359391D-05  0.68723125D-06 -0.58723834D-04 -0.20289755D-06
 -0.26154599D-05  0.18744568D-07 -0.13499634D-03 -0.25166037D-03 -0.42534032D-03
 -0.63936583D-03 -0.78534641D-03 -0.66280466D-03 -0.24923186D-03 -0.33673854D-07
 -0.25169120D-06 -0.94062747D-06 -0.26242042D-05 -0.35157101D-05  0.41513981D-05
 -0.91397488D-05 -0.20128840D-06 -0.10396408D-05  0.37015943D-02  0.34704800D-02
  0.24711885D-02  0.12791762D-04  0.11993090D-04  0.85397947D-05 -0.34022390D-05
 -0.31898153D-05 -0.22713385D-05  0.84379160D-03  0.29157291D-05  0.12596630D-05
  0.87927806D-04  0.30377662D-06 -0.24809218D-05 -0.15974069D-04 -0.55202475D-07
 -0.79163827D-08  0.47554178D-05 -0.12749030D-05 -0.34805148D-05  0.57685549D-07
 -0.10320979D-02 -0.35665389D-05  0.13270131D-06 -0.14781293D-05  0.13454280D-05
 -0.19592118D-08  0.91057506D-04  0.31463117D-06  0.24662184D-06 -0.88366402D-06
  0.63704218D-06  0.72425533D-08 -0.41661978D-04 -0.14396837D-06 -0.86535849D-04
  0.45949808D-06 -0.14114380D-06  0.13295899D-03 -0.18160637D-05 -0.12094218D-05