 cl2co-wavefunction
GAUSSIAN            192 MOL ORBITALS    372 PRIMITIVES        4 NUCLEI
  O    1    (CENTRE  1)   0.00000000  0.00000000  1.29143317  CHARGE =  8.0
  C    2    (CENTRE  2)   0.00000000  0.01889726 -0.93482295  CHARGE =  6.0
  Cl   3    (CENTRE  3)   0.00000000 -2.73418805 -2.77752892  CHARGE = 17.0
  Cl   4    (CENTRE  4)   0.00000000  2.73418805 -2.77752892  CHARGE = 17.0
CENTRE ASSIGNMENTS    1  1  1  1  1  1  1  1  1  1  1  1  1  1  1  1  1  1  1  1
CENTRE ASSIGNMENTS    1  1  1  1  1  1  1  1  1  1  1  1  1  1  1  1  1  1  1  1
CENTRE ASSIGNMENTS    1  1  1  1  1  1  1  1  1  1  1  1  1  1  1  1  1  1  1  1
CENTRE ASSIGNMENTS    1  1  1  1  1  1  1  1  1  1  1  1  2  2  2  2  2  2  2  2
CENTRE ASSIGNMENTS    2  2  2  2  2  2  2  2  2  2  2  2  2  2  2  2  2  2  2  2
CENTRE ASSIGNMENTS    2  2  2  2  2  2  2  2  2  2  2  2  2  2  2  2  2  2  2  2
CENTRE ASSIGNMENTS    2  2  2  2  2  2  2  2  2  2  2  2  2  2  2  2  2  2  2  2
CENTRE ASSIGNMENTS    2  2  2  2  3  3  3  3  3  3  3  3  3  3  3  3  3  3  3  3
CENTRE ASSIGNMENTS    3  3  3  3  3  3  3  3  3  3  3  3  3  3  3  3  3  3  3  3
CENTRE ASSIGNMENTS    3  3  3  3  3  3  3  3  3  3  3  3  3  3  3  3  3  3  3  3
CENTRE ASSIGNMENTS    3  3  3  3  3  3  3  3  3  3  3  3  3  3  3  3  3  3  3  3
CENTRE ASSIGNMENTS    3  3  3  3  3  3  3  3  3  3  3  3  3  3  3  3  3  3  3  3
CENTRE ASSIGNMENTS    3  3  3  3  3  3  3  3  3  3  3  3  3  3  3  3  3  3  4  4
CENTRE ASSIGNMENTS    4  4  4  4  4  4  4  4  4  4  4  4  4  4  4  4  4  4  4  4
CENTRE ASSIGNMENTS    4  4  4  4  4  4  4  4  4  4  4  4  4  4  4  4  4  4  4  4
CENTRE ASSIGNMENTS    4  4  4  4  4  4  4  4  4  4  4  4  4  4  4  4  4  4  4  4
CENTRE ASSIGNMENTS    4  4  4  4  4  4  4  4  4  4  4  4  4  4  4  4  4  4  4  4
CENTRE ASSIGNMENTS    4  4  4  4  4  4  4  4  4  4  4  4  4  4  4  4  4  4  4  4
CENTRE ASSIGNMENTS    4  4  4  4  4  4  4  4  4  4  4  4
TYPE ASSIGNMENTS      1  1  1  1  1  1  1  1  1  1  1  1  1  1  1  1  2  2  2  3
TYPE ASSIGNMENTS      3  3  4  4  4  2  3  4  2  3  4  2  3  4  5  6  7  8  9 10
TYPE ASSIGNMENTS      5  6  7  8  9 10  5  6  7  8  9 10 11 12 13 17 14 15 18 19
TYPE ASSIGNMENTS     16 20 11 12 13 17 14 15 18 19 16 20  1  1  1  1  1  1  1  1
TYPE ASSIGNMENTS      1  1  1  1  1  1  1  1  2  2  2  3  3  3  4  4  4  2  3  4
TYPE ASSIGNMENTS      2  3  4  2  3  4  5  6  7  8  9 10  5  6  7  8  9 10  5  6
TYPE ASSIGNMENTS      7  8  9 10 11 12 13 17 14 15 18 19 16 20 11 12 13 17 14 15
TYPE ASSIGNMENTS     18 19 16 20  1  1  1  1  1  1  1  1  1  1  1  1  1  1  1  1
TYPE ASSIGNMENTS      1  1  1  1  1  1  1  1  1  1  1  1  1  1  1  2  2  2  2  2
TYPE ASSIGNMENTS      2  3  3  3  3  3  3  4  4  4  4  4  4  2  2  2  2  2  2  3
TYPE ASSIGNMENTS      3  3  3  3  3  4  4  4  4  4  4  2  3  4  2  3  4  2  3  4
TYPE ASSIGNMENTS      5  6  7  8  9 10  5  6  7  8  9 10  5  6  7  8  9 10 11 12
TYPE ASSIGNMENTS     13 17 14 15 18 19 16 20 11 12 13 17 14 15 18 19 16 20  1  1
TYPE ASSIGNMENTS      1  1  1  1  1  1  1  1  1  1  1  1  1  1  1  1  1  1  1  1
TYPE ASSIGNMENTS      1  1  1  1  1  1  1  1  1  2  2  2  2  2  2  3  3  3  3  3
TYPE ASSIGNMENTS      3  4  4  4  4  4  4  2  2  2  2  2  2  3  3  3  3  3  3  4
TYPE ASSIGNMENTS      4  4  4  4  4  2  3  4  2  3  4  2  3  4  5  6  7  8  9 10
TYPE ASSIGNMENTS      5  6  7  8  9 10  5  6  7  8  9 10 11 12 13 17 14 15 18 19
TYPE ASSIGNMENTS     16 20 11 12 13 17 14 15 18 19 16 20
EXPONENTS  0.1533000D+05 0.2299000D+04 0.5224000D+03 0.1473000D+03 0.4755000D+02
EXPONENTS  0.1676000D+02 0.6207000D+01 0.5224000D+03 0.1473000D+03 0.4755000D+02
EXPONENTS  0.1676000D+02 0.6207000D+01 0.6882000D+00 0.1752000D+01 0.2384000D+00
EXPONENTS  0.7376000D-01 0.3446000D+02 0.7749000D+01 0.2280000D+01 0.3446000D+02
EXPONENTS  0.7749000D+01 0.2280000D+01 0.3446000D+02 0.7749000D+01 0.2280000D+01
EXPONENTS  0.7156000D+00 0.7156000D+00 0.7156000D+00 0.2140000D+00 0.2140000D+00
EXPONENTS  0.2140000D+00 0.5974000D-01 0.5974000D-01 0.5974000D-01 0.2314000D+01
EXPONENTS  0.2314000D+01 0.2314000D+01 0.2314000D+01 0.2314000D+01 0.2314000D+01
EXPONENTS  0.6450000D+00 0.6450000D+00 0.6450000D+00 0.6450000D+00 0.6450000D+00
EXPONENTS  0.6450000D+00 0.2140000D+00 0.2140000D+00 0.2140000D+00 0.2140000D+00
EXPONENTS  0.2140000D+00 0.2140000D+00 0.1428000D+01 0.1428000D+01 0.1428000D+01
EXPONENTS  0.1428000D+01 0.1428000D+01 0.1428000D+01 0.1428000D+01 0.1428000D+01
EXPONENTS  0.1428000D+01 0.1428000D+01 0.5000000D+00 0.5000000D+00 0.5000000D+00
EXPONENTS  0.5000000D+00 0.5000000D+00 0.5000000D+00 0.5000000D+00 0.5000000D+00
EXPONENTS  0.5000000D+00 0.5000000D+00 0.8236000D+04 0.1235000D+04 0.2808000D+03
EXPONENTS  0.7927000D+02 0.2559000D+02 0.8997000D+01 0.3319000D+01 0.2808000D+03
EXPONENTS  0.7927000D+02 0.2559000D+02 0.8997000D+01 0.3319000D+01 0.3643000D+00
EXPONENTS  0.9059000D+00 0.1285000D+00 0.4402000D-01 0.1871000D+02 0.4133000D+01
EXPONENTS  0.1200000D+01 0.1871000D+02 0.4133000D+01 0.1200000D+01 0.1871000D+02
EXPONENTS  0.4133000D+01 0.1200000D+01 0.3827000D+00 0.3827000D+00 0.3827000D+00
EXPONENTS  0.1209000D+00 0.1209000D+00 0.1209000D+00 0.3569000D-01 0.3569000D-01
EXPONENTS  0.3569000D-01 0.1097000D+01 0.1097000D+01 0.1097000D+01 0.1097000D+01
EXPONENTS  0.1097000D+01 0.1097000D+01 0.3180000D+00 0.3180000D+00 0.3180000D+00
EXPONENTS  0.3180000D+00 0.3180000D+00 0.3180000D+00 0.1000000D+00 0.1000000D+00
EXPONENTS  0.1000000D+00 0.1000000D+00 0.1000000D+00 0.1000000D+00 0.7610000D+00
EXPONENTS  0.7610000D+00 0.7610000D+00 0.7610000D+00 0.7610000D+00 0.7610000D+00
EXPONENTS  0.7610000D+00 0.7610000D+00 0.7610000D+00 0.7610000D+00 0.2680000D+00
EXPONENTS  0.2680000D+00 0.2680000D+00 0.2680000D+00 0.2680000D+00 0.2680000D+00
EXPONENTS  0.2680000D+00 0.2680000D+00 0.2680000D+00 0.2680000D+00 0.4561000D+06
EXPONENTS  0.6833000D+05 0.1555000D+05 0.4405000D+04 0.1439000D+04 0.5204000D+03
EXPONENTS  0.2031000D+03 0.8396000D+02 0.3620000D+02 0.1583000D+02 0.6334000D+01
EXPONENTS  0.4405000D+04 0.1439000D+04 0.5204000D+03 0.2031000D+03 0.8396000D+02
EXPONENTS  0.3620000D+02 0.1583000D+02 0.6334000D+01 0.2694000D+01 0.1439000D+04
EXPONENTS  0.2031000D+03 0.8396000D+02 0.3620000D+02 0.1583000D+02 0.6334000D+01
EXPONENTS  0.2694000D+01 0.4313000D+00 0.9768000D+00 0.1625000D+00 0.5910000D-01
EXPONENTS  0.6633000D+03 0.1568000D+03 0.4998000D+02 0.1842000D+02 0.7240000D+01
EXPONENTS  0.2922000D+01 0.6633000D+03 0.1568000D+03 0.4998000D+02 0.1842000D+02
EXPONENTS  0.7240000D+01 0.2922000D+01 0.6633000D+03 0.1568000D+03 0.4998000D+02
EXPONENTS  0.1842000D+02 0.7240000D+01 0.2922000D+01 0.1568000D+03 0.4998000D+02
EXPONENTS  0.1842000D+02 0.7240000D+01 0.2922000D+01 0.3818000D+00 0.1568000D+03
EXPONENTS  0.4998000D+02 0.1842000D+02 0.7240000D+01 0.2922000D+01 0.3818000D+00
EXPONENTS  0.1568000D+03 0.4998000D+02 0.1842000D+02 0.7240000D+01 0.2922000D+01
EXPONENTS  0.3818000D+00 0.1022000D+01 0.1022000D+01 0.1022000D+01 0.1301000D+00
EXPONENTS  0.1301000D+00 0.1301000D+00 0.4190000D-01 0.4190000D-01 0.4190000D-01
EXPONENTS  0.1046000D+01 0.1046000D+01 0.1046000D+01 0.1046000D+01 0.1046000D+01
EXPONENTS  0.1046000D+01 0.3440000D+00 0.3440000D+00 0.3440000D+00 0.3440000D+00
EXPONENTS  0.3440000D+00 0.3440000D+00 0.1350000D+00 0.1350000D+00 0.1350000D+00
EXPONENTS  0.1350000D+00 0.1350000D+00 0.1350000D+00 0.7060000D+00 0.7060000D+00
EXPONENTS  0.7060000D+00 0.7060000D+00 0.7060000D+00 0.7060000D+00 0.7060000D+00
EXPONENTS  0.7060000D+00 0.7060000D+00 0.7060000D+00 0.3120000D+00 0.3120000D+00
EXPONENTS  0.3120000D+00 0.3120000D+00 0.3120000D+00 0.3120000D+00 0.3120000D+00
EXPONENTS  0.3120000D+00 0.3120000D+00 0.3120000D+00 0.4561000D+06 0.6833000D+05
EXPONENTS  0.1555000D+05 0.4405000D+04 0.1439000D+04 0.5204000D+03 0.2031000D+03
EXPONENTS  0.8396000D+02 0.3620000D+02 0.1583000D+02 0.6334000D+01 0.4405000D+04
EXPONENTS  0.1439000D+04 0.5204000D+03 0.2031000D+03 0.8396000D+02 0.3620000D+02
EXPONENTS  0.1583000D+02 0.6334000D+01 0.2694000D+01 0.1439000D+04 0.2031000D+03
EXPONENTS  0.8396000D+02 0.3620000D+02 0.1583000D+02 0.6334000D+01 0.2694000D+01
EXPONENTS  0.4313000D+00 0.9768000D+00 0.1625000D+00 0.5910000D-01 0.6633000D+03
EXPONENTS  0.1568000D+03 0.4998000D+02 0.1842000D+02 0.7240000D+01 0.2922000D+01
EXPONENTS  0.6633000D+03 0.1568000D+03 0.4998000D+02 0.1842000D+02 0.7240000D+01
EXPONENTS  0.2922000D+01 0.6633000D+03 0.1568000D+03 0.4998000D+02 0.1842000D+02
EXPONENTS  0.7240000D+01 0.2922000D+01 0.1568000D+03 0.4998000D+02 0.1842000D+02
EXPONENTS  0.7240000D+01 0.2922000D+01 0.3818000D+00 0.1568000D+03 0.4998000D+02
EXPONENTS  0.1842000D+02 0.7240000D+01 0.2922000D+01 0.3818000D+00 0.1568000D+03
EXPONENTS  0.4998000D+02 0.1842000D+02 0.7240000D+01 0.2922000D+01 0.3818000D+00
EXPONENTS  0.1022000D+01 0.1022000D+01 0.1022000D+01 0.1301000D+00 0.1301000D+00
EXPONENTS  0.1301000D+00 0.4190000D-01 0.4190000D-01 0.4190000D-01 0.1046000D+01
EXPONENTS  0.1046000D+01 0.1046000D+01 0.1046000D+01 0.1046000D+01 0.1046000D+01
EXPONENTS  0.3440000D+00 0.3440000D+00 0.3440000D+00 0.3440000D+00 0.3440000D+00
EXPONENTS  0.3440000D+00 0.1350000D+00 0.1350000D+00 0.1350000D+00 0.1350000D+00
EXPONENTS  0.1350000D+00 0.1350000D+00 0.7060000D+00 0.7060000D+00 0.7060000D+00
EXPONENTS  0.7060000D+00 0.7060000D+00 0.7060000D+00 0.7060000D+00 0.7060000D+00
EXPONENTS  0.7060000D+00 0.7060000D+00 0.3120000D+00 0.3120000D+00 0.3120000D+00
EXPONENTS  0.3120000D+00 0.3120000D+00 0.3120000D+00 0.3120000D+00 0.3120000D+00
EXPONENTS  0.3120000D+00 0.3120000D+00
MO    1     MO 0.0        OCC NO =    2.0000387  ORB. ENERGY =    0.000000
 -0.53687123D-03 -0.10006397D-02 -0.16967252D-02 -0.25678132D-02 -0.32031446D-02
 -0.27487746D-02 -0.10526346D-02 -0.13038094D-07 -0.13989019D-06 -0.51566159D-06
 -0.15077642D-05 -0.18169292D-05  0.21886838D-05 -0.54351924D-04 -0.16549738D-04
 -0.26047714D-04 -0.18216327D-12 -0.17663710D-12 -0.11915834D-12  0.88059574D-03
  0.85388165D-03  0.57602351D-03 -0.13528354D-03 -0.13117952D-03 -0.88492931D-04
 -0.56445378D-13  0.94059353D-03 -0.66408866D-04 -0.18103761D-13  0.75706975D-03
 -0.53447680D-04 -0.44366375D-15  0.19671628D-04 -0.67852029D-06 -0.54852533D-05
  0.23811705D-05  0.31040828D-05 -0.17597883D-13 -0.16429091D-13  0.19893124D-03
 -0.15006592D-05 -0.16714055D-04  0.18214714D-04 -0.28855403D-14  0.13642949D-13
  0.70040296D-04 -0.85230691D-05  0.19463550D-05  0.65767141D-05  0.19009445D-13
  0.46017512D-14 -0.11195516D-03  0.16944790D-14  0.14644777D-03 -0.14793000D-04
 -0.13702905D-13 -0.22119213D-03  0.73387283D-05  0.86194678D-14 -0.21815118D-03
  0.37040273D-04  0.92370631D-13 -0.10032851D-15  0.10271644D-04 -0.54831772D-06
  0.60361512D-14  0.19958133D-03 -0.14494090D-05 -0.57351657D-14 -0.23039626D-03
  0.30943622D-05 -0.29386126D-13  0.32335475D-03  0.60279839D-03  0.10188114D-02
  0.15314636D-02  0.18811287D-02  0.15876062D-02  0.59698141D-03  0.38874197D-06
  0.29056054D-05  0.10858911D-04  0.30294670D-04  0.40586506D-04 -0.47925095D-04
  0.13371289D-04 -0.39567900D-05 -0.98478910D-05  0.10130939D-12  0.94983992D-13
  0.67634261D-13 -0.11091882D-02 -0.10399344D-02 -0.74049525D-03 -0.13532431D-03
 -0.12687514D-03 -0.90342657D-04  0.32277298D-13 -0.14233715D-03 -0.10079711D-03
  0.91296166D-14 -0.72143944D-04  0.29257360D-04  0.75469021D-16  0.87102278D-05
  0.17847934D-05  0.94786070D-05 -0.78530332D-04  0.69051725D-04 -0.15058399D-12
 -0.30270348D-13 -0.18335923D-03 -0.64966178D-05  0.29581982D-04 -0.23085364D-04
  0.56898817D-14  0.76320179D-14 -0.73850624D-04  0.30093687D-06 -0.10637831D-04
  0.10336894D-04 -0.88280962D-14 -0.12921931D-14 -0.54341697D-04 -0.24289431D-14
 -0.25433793D-03 -0.15820340D-04  0.19994100D-15 -0.37224208D-04  0.28764954D-04
  0.70868881D-14  0.80023799D-03  0.18696067D-04  0.35651788D-13  0.20971426D-15
  0.25800325D-03  0.86254499D-05 -0.30464401D-14 -0.27034442D-04 -0.10139482D-04
  0.24172973D-14 -0.74697530D-03 -0.15736868D-04 -0.43035557D-13  0.56626587D-03
  0.10594230D-02  0.18304480D-02  0.29673713D-02  0.45062380D-02  0.62632469D-02
  0.74465206D-02  0.66336193D-02  0.32943956D-02  0.53036983D-03  0.55957149D-05
  0.29864860D-05  0.99624174D-04  0.34717030D-03  0.12502165D-02  0.27559466D-02
  0.38794834D-02 -0.18506400D-03 -0.50769777D-02 -0.30019851D-02 -0.26209949D-06
 -0.31746649D-05 -0.66204290D-05 -0.18986238D-04 -0.98592889D-06  0.81877865D-04
  0.21155668D-03 -0.17236642D-03 -0.15355284D-03  0.12181199D-03  0.72947087D-04
 -0.13025876D-08 -0.17158126D-08 -0.18928098D-08 -0.15721268D-08 -0.83484294D-09
 -0.21539384D-09  0.42532706D+01  0.56025524D+01  0.61804923D+01  0.51333828D+01
  0.27259687D+01  0.70331417D+00 -0.61105206D+01 -0.80489851D+01 -0.88792905D+01
 -0.73749460D+01 -0.39163010D+01 -0.10104261D+01  0.55493278D-13 -0.53647331D-12
 -0.75648336D-12 -0.10819713D-11  0.54789505D-14  0.99226975D-12 -0.21924939D-03
  0.21195620D-02  0.29888037D-02  0.42747799D-02 -0.21646884D-04 -0.39203763D-02
  0.30209152D-03 -0.29204265D-02 -0.41181062D-02 -0.58899812D-02  0.29826036D-04
  0.54016683D-02 -0.85393770D-11  0.27292793D-01 -0.39398718D-01  0.64008925D-13
 -0.32493271D-03  0.53373388D-03  0.23553826D-14 -0.99076414D-05  0.16774344D-04
  0.12097512D-04  0.70137495D-03 -0.71347246D-03 -0.13011861D-12 -0.79351971D-13
 -0.65369976D-03 -0.56872060D-04 -0.39952960D-03  0.45640166D-03  0.72385266D-13
  0.47741626D-13  0.30860607D-03 -0.44886045D-05 -0.14553376D-05  0.59439422D-05
 -0.40020072D-14 -0.49575241D-14  0.61848917D-05 -0.31784852D-14  0.17495531D-04
  0.18143750D-05 -0.19633378D-14 -0.22983523D-04 -0.36125567D-04  0.11498793D-13
 -0.29503069D-04  0.30682442D-04  0.16340149D-14 -0.30538148D-14 -0.70204355D-04
  0.42285324D-04  0.12423427D-13 -0.11875006D-04 -0.46896281D-04 -0.32619825D-14
  0.22248807D-03 -0.79959689D-04  0.21320981D-13  0.64830152D-04  0.12129030D-03
  0.20956273D-03  0.33972581D-03  0.51590624D-03  0.71706113D-03  0.85253074D-03
  0.75946401D-03  0.37716589D-03  0.60720517D-04  0.64063732D-06  0.24648235D-07
  0.82222385D-06  0.28652855D-05  0.10318357D-04  0.22745534D-04  0.32018371D-04
 -0.15273806D-05 -0.41901598D-04 -0.24776153D-04  0.29139656D-06  0.35295239D-05
  0.73604500D-05  0.21108489D-04  0.10961345D-05 -0.91030043D-04 -0.23520415D-03
  0.19163327D-03 -0.16895697D-05 -0.77484019D-04 -0.40665788D-04  0.75541038D-09
  0.99505219D-09  0.10976983D-08  0.91172441D-09  0.48415096D-09  0.12491348D-09
  0.50418207D+01  0.66412573D+01  0.73263464D+01  0.60851043D+01  0.32313593D+01
  0.83370758D+00  0.73682513D+01  0.97057106D+01  0.10706918D+02  0.88929338D+01
  0.47223946D+01  0.12184025D+01 -0.34345218D-13  0.33202747D-12  0.46819340D-12
  0.66964041D-12 -0.33909648D-14 -0.61412341D-12 -0.25408258D-03  0.24563069D-02
  0.34636492D-02  0.49539346D-02 -0.25086027D-04 -0.45432252D-02 -0.36371250D-03
  0.35161385D-02  0.49581223D-02  0.70914264D-02 -0.35909985D-04 -0.65035069D-02
  0.49150641D-11  0.32364451D-01  0.47551676D-01 -0.42213651D-13 -0.36062557D-03
 -0.57507928D-03 -0.15111678D-14 -0.11874890D-04 -0.17428266D-04 -0.16422942D-04
 -0.78843498D-03  0.80485792D-03 -0.97920850D-13  0.45680118D-13 -0.71250789D-03
  0.59767883D-04  0.46239496D-03 -0.52216284D-03  0.45421732D-13 -0.31252489D-13
  0.39325338D-03  0.50363949D-05 -0.51307701D-05  0.94375198D-07 -0.16428092D-14
  0.40152206D-14  0.36971505D-05  0.31639488D-14  0.99909627D-05 -0.34738766D-05
  0.57402327D-14 -0.13815057D-04  0.37756448D-04 -0.15232079D-13 -0.16157831D-04
 -0.27334818D-04 -0.10934235D-14  0.11943236D-14 -0.79452208D-04 -0.41653405D-04
 -0.93979729D-14 -0.10851847D-04  0.55527251D-04  0.58150021D-14  0.24920847D-03
  0.69432964D-04  0.15357896D-13
MO    2     MO 0.0        OCC NO =    2.0000377  ORB. ENERGY =    0.000000
  0.54932729D-02  0.10238557D-01  0.17360913D-01  0.26273895D-01  0.32774614D-01
  0.28125495D-01  0.10770570D-01  0.87599394D-06  0.93988401D-05  0.34645894D-04
  0.10130256D-03  0.12207451D-03 -0.14705169D-03  0.53924559D-03  0.20264401D-03
  0.29877618D-03 -0.38450843D-12 -0.37284384D-12 -0.25151825D-12  0.68615539D-05
  0.66533992D-05  0.44883438D-05  0.15849794D-02  0.15368969D-02  0.10367816D-02
 -0.10340230D-12  0.56005403D-04  0.58219421D-03 -0.10464508D-13  0.64551126D-04
  0.49410536D-03  0.18270730D-14  0.29032822D-05  0.10479753D-04  0.13186698D-03
 -0.21814654D-03  0.86279566D-04  0.19580955D-13 -0.44592574D-14  0.24069400D-04
 -0.76777178D-04  0.24698868D-03 -0.17021150D-03  0.52543678D-14 -0.26591579D-14
  0.93770457D-05  0.57587805D-04  0.22393421D-04 -0.79981227D-04 -0.20871714D-13
 -0.30908542D-14 -0.70636700D-05  0.54920173D-14  0.13341267D-04  0.31892629D-04
 -0.27485738D-13 -0.19295251D-04 -0.37195886D-04  0.11009686D-13 -0.20728549D-04
 -0.58482001D-04 -0.83069001D-13 -0.37110351D-14  0.99335023D-06  0.34789239D-04
  0.78039447D-14  0.16893297D-04  0.32393151D-04  0.33291605D-14 -0.19873348D-04
 -0.13676087D-03  0.29098230D-13 -0.38741909D-02 -0.72222723D-02 -0.12206624D-01
 -0.18348833D-01 -0.22538255D-01 -0.19021492D-01 -0.71525776D-02 -0.41477857D-05
 -0.31002128D-04 -0.11586203D-03 -0.32323703D-03 -0.43304850D-03  0.51134953D-03
 -0.10405202D-03 -0.12687269D-04  0.85151968D-04  0.28921818D-12  0.27116042D-12
  0.19308238D-12 -0.56588547D-04 -0.53055360D-04 -0.37778577D-04  0.97189041D-03
  0.91120903D-03  0.64883511D-03  0.49440281D-13 -0.22089168D-04  0.82236944D-03
  0.22507201D-14  0.33660673D-05 -0.20255622D-03 -0.11772040D-14  0.72504123D-06
 -0.21837353D-04 -0.67890377D-04  0.67902733D-03 -0.61113695D-03  0.16394020D-12
 -0.83719494D-13 -0.19986542D-04  0.82005384D-04 -0.16412387D-03  0.82118481D-04
 -0.79730550D-14 -0.35060758D-14 -0.10319138D-04 -0.10802138D-06  0.11502555D-03
 -0.11491753D-03  0.96256470D-14 -0.41957089D-14 -0.63297432D-05 -0.47004763D-14
 -0.18710463D-04  0.13577245D-03  0.13505212D-13 -0.17910027D-05 -0.17411997D-03
  0.59621661D-15  0.57922392D-04 -0.23319739D-03 -0.50949484D-13  0.29682875D-14
  0.21598482D-04 -0.68102219D-04 -0.81042575D-14 -0.37007209D-05  0.94307862D-04
 -0.80060502D-15 -0.61094725D-04  0.10999879D-03  0.47869780D-13 -0.12338900D-02
 -0.23084764D-02 -0.39885353D-02 -0.64658843D-02 -0.98190658D-02 -0.13647578D-01
 -0.16225924D-01 -0.14454617D-01 -0.71784684D-02 -0.11556727D-02 -0.12193029D-04
 -0.60625012D-05 -0.20223489D-03 -0.70474811D-03 -0.25379121D-02 -0.55945113D-02
 -0.78752663D-02  0.37567587D-03  0.10306154D-01  0.60939641D-02  0.90491940D-07
  0.10960784D-05  0.22857559D-05  0.65551499D-05  0.34039981D-06 -0.28268986D-04
 -0.73041630D-04  0.59510882D-04  0.25841392D-03 -0.16942916D-03 -0.15968447D-03
  0.51275891D-09  0.67542344D-09  0.74509778D-09  0.61886205D-09  0.32863292D-09
  0.84789011D-10  0.44757244D+01  0.58955761D+01  0.65037433D+01  0.54018680D+01
  0.28685418D+01  0.74009879D+00 -0.77220138D+01 -0.10171699D+02 -0.11220976D+02
 -0.93198989D+01 -0.49491250D+01 -0.12769001D+01 -0.25004080D-13  0.24172336D-12
  0.34085517D-12  0.48751306D-12 -0.24686975D-14 -0.44709546D-12 -0.19422003D-03
  0.18775943D-02  0.26476039D-02  0.37867739D-02 -0.19175690D-04 -0.34728289D-02
  0.36185962D-03 -0.34982260D-02 -0.49328638D-02 -0.70553001D-02  0.35727047D-04
  0.64703757D-02  0.33017245D-11  0.28787638D-01 -0.49980949D-01 -0.30613073D-13
 -0.19537139D-03  0.27356118D-03 -0.57343235D-15 -0.12629905D-04  0.90981279D-05
  0.24295923D-04  0.48807907D-03 -0.51237499D-03  0.88903185D-13  0.36109852D-13
 -0.47015053D-03 -0.45008222D-06 -0.30429932D-03  0.30474940D-03 -0.32298078D-13
 -0.23767295D-13  0.47721594D-03 -0.92431207D-06  0.37879716D-04 -0.36955404D-04
  0.21530827D-14  0.53121251D-14 -0.17063214D-04  0.37033937D-14 -0.30788696D-04
  0.10057103D-04  0.85816975D-14  0.48679188D-04  0.20514632D-05 -0.19691879D-13
  0.43686901D-04 -0.32222774D-04 -0.73159941D-15 -0.39167234D-16 -0.53673823D-04
 -0.10263484D-04 -0.78867971D-14  0.13072569D-04 -0.43812923D-04  0.80042988D-14
  0.14794890D-03  0.74603377D-04 -0.10377252D-13 -0.16791640D-02 -0.31415367D-02
 -0.54278785D-02 -0.87992289D-02 -0.13362473D-01 -0.18572581D-01 -0.22081375D-01
 -0.19670857D-01 -0.97689633D-02 -0.15727204D-02 -0.16593130D-04 -0.81984491D-05
 -0.27348654D-03 -0.95304583D-03 -0.34320723D-02 -0.75655764D-02 -0.10649890D-01
  0.50803445D-03  0.13937230D-01  0.82409970D-02  0.95811047D-07  0.11605058D-05
  0.24201124D-05  0.69404610D-05  0.36040848D-06 -0.29930634D-04 -0.77335010D-04
  0.63008926D-04  0.38727766D-03 -0.20946545D-03 -0.17380666D-03 -0.17105627D-08
 -0.22532112D-08 -0.24856447D-08 -0.20645225D-08 -0.10963187D-08 -0.28285597D-09
 -0.36938537D+01 -0.48656695D+01 -0.53675951D+01 -0.44582080D+01 -0.23674322D+01
 -0.61080987D+00 -0.64583645D+01 -0.85071768D+01 -0.93847477D+01 -0.77947678D+01
 -0.41392380D+01 -0.10679450D+01  0.71832679D-13 -0.69443212D-12 -0.97922179D-12
 -0.14005462D-11  0.70921688D-14  0.12844330D-11  0.15578756D-03 -0.15060539D-02
 -0.21236932D-02 -0.30374431D-02  0.15381184D-04  0.27856218D-02  0.30125458D-03
 -0.29123354D-02 -0.41066970D-02 -0.58736630D-02  0.29743403D-04  0.53867030D-02
 -0.11240753D-10 -0.23767162D-01 -0.41834507D-01  0.83569018D-13  0.13663052D-03
  0.16535884D-03  0.35329743D-14  0.10593241D-04  0.52041845D-05  0.20149505D-04
  0.36440257D-03 -0.38455207D-03  0.15797533D-12 -0.10274403D-12  0.32648820D-03
  0.10115335D-04 -0.24003260D-03  0.22991727D-03 -0.96239693D-13  0.62828137D-13
 -0.41762240D-03 -0.36180599D-06  0.37985535D-04 -0.37623729D-04  0.36494792D-14
 -0.44206955D-14  0.16332926D-04 -0.27888577D-14  0.34380521D-04  0.99450619D-05
 -0.18734199D-14 -0.53359412D-04  0.85487463D-05  0.10239993D-13 -0.49782150D-04
 -0.38383932D-04  0.47308368D-14 -0.49099569D-14  0.42095623D-04 -0.16758553D-04
  0.16556363D-13 -0.15220575D-04 -0.35800245D-04 -0.18264929D-14 -0.11106629D-03
  0.86075903D-04 -0.30202477D-13
MO    3     MO 0.0        OCC NO =    2.0000335  ORB. ENERGY =    0.000000
 -0.84107577D-11 -0.15676269D-10 -0.26581318D-10 -0.40227998D-10 -0.50181256D-10
 -0.43062984D-10 -0.16490835D-10 -0.68155528D-15 -0.73126409D-14 -0.26955771D-13
 -0.78817094D-13 -0.94978431D-13  0.11441158D-12 -0.79174483D-12  0.66456202D-14
  0.43216124D-13  0.74821532D-04  0.72551717D-04  0.48942960D-04  0.13047453D-12
  0.12651641D-12  0.85347222D-13 -0.10725011D-12 -0.10399653D-12 -0.70155444D-13
  0.21386314D-04 -0.26652540D-13 -0.10695428D-12  0.54014457D-05 -0.27345237D-13
  0.27788815D-13  0.22284255D-07  0.23048851D-14  0.21083665D-14  0.97245187D-14
 -0.57886387D-13  0.48161868D-13 -0.11535501D-03  0.12748383D-04  0.23606052D-13
 -0.30831748D-13  0.17481632D-13  0.13350116D-13 -0.33212554D-04 -0.92040566D-05
 -0.29557038D-13 -0.21561396D-15  0.61143135D-14 -0.58986995D-14  0.15868680D-03
 -0.21349853D-05 -0.33956492D-14  0.17424793D-05 -0.68434045D-14  0.53992147D-13
 -0.29428769D-05  0.30459235D-13 -0.80326823D-13 -0.22845610D-05 -0.99290213D-14
 -0.81649619D-13  0.78152412D-03 -0.15387252D-05 -0.42578564D-14  0.23690949D-14
 -0.36174030D-06 -0.21525188D-13  0.19698589D-13  0.49779160D-05  0.34298757D-13
 -0.26805874D-13 -0.24317311D-03 -0.29038202D-10 -0.54133058D-10 -0.91492243D-10
 -0.13752991D-09 -0.16893086D-09 -0.14257168D-09 -0.53610676D-10 -0.44371858D-14
 -0.33165215D-13 -0.12394598D-12 -0.34578998D-12 -0.46326325D-12  0.54702751D-12
 -0.22743907D-11 -0.12373775D-12  0.71441114D-15 -0.10304108D-03 -0.96607564D-04
 -0.68790340D-04 -0.14091230D-12 -0.13211424D-12 -0.94073208D-13  0.13942252D-12
  0.13071748D-12  0.93078630D-13 -0.19604400D-04  0.24206506D-13 -0.18549170D-13
  0.17821327D-06  0.43873221D-14  0.38534407D-13 -0.72889060D-07 -0.31807542D-14
 -0.32717354D-14  0.68566969D-13  0.11928521D-12 -0.18785218D-12 -0.12037477D-02
  0.20897769D-04  0.59077811D-13  0.23307130D-13 -0.22909646D-13 -0.39748410D-15
  0.46126470D-04 -0.14045683D-04 -0.65445860D-13  0.34604285D-14  0.13818949D-13
 -0.17279378D-13 -0.72279696D-04  0.30486345D-06 -0.17969775D-14  0.47434262D-05
  0.28722319D-13 -0.18374691D-13 -0.34272932D-05  0.12407214D-14  0.41092397D-13
 -0.10802985D-04 -0.87407679D-13  0.14031677D-13  0.35078520D-03 -0.17503980D-05
 -0.22511034D-13 -0.54515893D-15  0.38140618D-05 -0.68600710D-15  0.65024692D-14
  0.14371323D-05  0.68219108D-13 -0.48669924D-14 -0.35490185D-03 -0.30612017D-11
 -0.57271817D-11 -0.98952997D-11 -0.16041444D-10 -0.24360471D-10 -0.33858763D-10
 -0.40255475D-10 -0.35860976D-10 -0.17809319D-10 -0.28671497D-11 -0.30250123D-13
 -0.19656207D-13 -0.65569815D-12 -0.22849768D-11 -0.82285713D-11 -0.18138861D-10
 -0.25533663D-10  0.12180389D-11  0.33415232D-10  0.19758217D-10 -0.69912065D-15
 -0.84680583D-14 -0.17659243D-13 -0.50643634D-13 -0.26298534D-14  0.21839991D-12
  0.56430343D-12 -0.45976787D-12  0.11499178D-11  0.35094433D-13 -0.36233220D-13
 -0.81587511D+01 -0.10746984D+02 -0.11855605D+02 -0.98470086D+01 -0.52290348D+01
 -0.13491183D+01 -0.68812009D-09 -0.90641513D-09 -0.99991777D-09 -0.83051000D-09
 -0.44102386D-09 -0.11378646D-09 -0.73453021D-09 -0.96754811D-09 -0.10673570D-08
 -0.88652358D-09 -0.47076862D-09 -0.12146076D-09  0.35598795D-03 -0.34414625D-02
 -0.48528213D-02 -0.69408183D-02  0.35147327D-04  0.63653850D-02  0.27734431D-13
 -0.26811863D-12 -0.37807526D-12 -0.54074763D-12  0.27382699D-14  0.49591658D-12
  0.26990330D-13 -0.26092514D-12 -0.36793168D-12 -0.52623964D-12  0.26648035D-14
  0.48261138D-12 -0.53306155D-01 -0.50420132D-11 -0.51571863D-11  0.42299613D-03
  0.53516829D-13 -0.16476206D-13  0.15318146D-04 -0.10720600D-15 -0.74793662D-15
  0.28940244D-13 -0.38877085D-13  0.99368411D-14 -0.90197581D-03 -0.50081862D-03
 -0.12631588D-13 -0.24784131D-13  0.40832707D-13 -0.16048577D-13  0.46098368D-03
  0.30756177D-03  0.90174702D-13  0.55525304D-15  0.73590146D-14 -0.79142677D-14
 -0.21454069D-04 -0.36700600D-04 -0.32205727D-14 -0.21498754D-04 -0.68037376D-14
 -0.24336131D-15 -0.45158116D-04 -0.53803392D-14  0.20142280D-14  0.10965438D-03
  0.25791552D-13 -0.12841440D-14 -0.12612636D-04 -0.17137213D-04  0.41992396D-14
 -0.76407443D-14  0.90037613D-04 -0.45441713D-14 -0.73200731D-14 -0.38625974D-04
 -0.80535475D-14  0.30242306D-13  0.14353104D-03 -0.38900733D-10 -0.72779120D-10
 -0.12574618D-09 -0.20384933D-09 -0.30956476D-09 -0.43026590D-09 -0.51155318D-09
 -0.45570935D-09 -0.22631490D-09 -0.36434784D-10 -0.38440849D-12 -0.68973074D-13
 -0.23008263D-11 -0.80179189D-11 -0.28873824D-10 -0.63648752D-10 -0.89596901D-10
  0.42740642D-11  0.11725310D-09  0.69331026D-10 -0.16035036D-14 -0.19422344D-13
 -0.40503251D-13 -0.11615627D-12 -0.60318334D-14  0.50092217D-12  0.12942867D-11
 -0.10545239D-11  0.44697527D-11 -0.99455487D-13  0.15064958D-14  0.82692727D+01
  0.10892567D+02  0.12016206D+02  0.99803999D+01  0.52998693D+01  0.13673940D+01
 -0.89669445D-09 -0.11811564D-08 -0.13030004D-08 -0.10822438D-08 -0.57470150D-09
 -0.14827599D-09 -0.18887626D-08 -0.24879422D-08 -0.27445897D-08 -0.22795966D-08
 -0.12105291D-08 -0.31232283D-09 -0.36174346D-03  0.34971030D-02  0.49312803D-02
  0.70530353D-02 -0.35715578D-04 -0.64682986D-02  0.45050496D-13 -0.43551921D-12
 -0.61412754D-12 -0.87836484D-12  0.44479159D-14  0.80554341D-12  0.87684209D-13
 -0.84767451D-12 -0.11953095D-11 -0.17096089D-11  0.86572186D-14  0.15678726D-11
  0.54069926D-01 -0.57967833D-11 -0.12132758D-10 -0.42515793D-03  0.22619861D-13
  0.10597244D-12 -0.15013517D-04  0.25288061D-14  0.39248533D-14 -0.24851577D-13
  0.18847646D-12 -0.16362488D-12 -0.91206566D-03  0.52055514D-03  0.33944518D-14
 -0.26174506D-14 -0.82239007D-13  0.84856458D-13  0.48270296D-03 -0.32841992D-03
 -0.58909514D-13 -0.32010833D-14  0.10646721D-13 -0.74456379D-14 -0.21650856D-04
  0.37044452D-04 -0.39377858D-15  0.24019656D-04  0.56031036D-15  0.88219388D-15
  0.38745725D-04  0.52189886D-14 -0.14769889D-14 -0.11080469D-03 -0.68999197D-14
 -0.11695928D-14 -0.64541066D-05  0.18008138D-04  0.11864433D-13  0.53481755D-14
 -0.91111996D-04 -0.15518839D-14 -0.10878395D-13  0.37087582D-04 -0.34041416D-13
 -0.51661314D-14  0.15132265D-03
MO    4     MO 0.0        OCC NO =    2.0000300  ORB. ENERGY =    0.000000
 -0.19072773D-10 -0.35548512D-10 -0.60277498D-10 -0.91223583D-10 -0.11379423D-09
 -0.97652379D-10 -0.37395673D-10 -0.22635504D-14 -0.24286411D-13 -0.89524282D-13
 -0.26176375D-12 -0.31543805D-12  0.37997855D-12 -0.17478131D-11  0.18365652D-12
  0.38062329D-13 -0.52010010D-02 -0.50432214D-02 -0.34021274D-02  0.99681797D-13
  0.96657812D-13  0.65204789D-13  0.22972378D-12  0.22275479D-12  0.15026907D-12
 -0.14813970D-02  0.74696450D-14 -0.24595991D-12 -0.31079230D-03 -0.17867984D-13
 -0.11690952D-12  0.14426898D-04  0.17245756D-14 -0.19274588D-14  0.17266362D-13
 -0.17972554D-14 -0.15469106D-13  0.63490106D-05 -0.38634348D-03  0.86079307D-14
 -0.30204678D-13 -0.52938833D-13  0.83143510D-13 -0.54362854D-05  0.17490009D-03
 -0.23747536D-13 -0.10979012D-13  0.18750923D-14  0.91039200D-14 -0.22629384D-05
  0.27549866D-04  0.33358126D-14  0.63058973D-04 -0.49008073D-14  0.11635702D-13
 -0.33267743D-03  0.13404541D-13 -0.23534112D-13  0.14350052D-03  0.12978805D-14
 -0.11372995D-13 -0.15948467D-04 -0.26650268D-04 -0.21699639D-14 -0.21079700D-14
  0.13873670D-03 -0.77222897D-14  0.91956518D-14 -0.58785893D-04  0.14232181D-13
 -0.28717418D-14  0.66911095D-05 -0.21977524D-10 -0.40970532D-10 -0.69245781D-10
 -0.10408932D-09 -0.12785509D-09 -0.10790519D-09 -0.40575168D-10 -0.26999274D-14
 -0.20180285D-13 -0.75418332D-13 -0.21040540D-12 -0.28188523D-12  0.33285390D-12
 -0.16803054D-11 -0.41307195D-12 -0.47567361D-13  0.37018006D-02  0.34706734D-02
  0.24713262D-02  0.10577391D-12  0.99169766D-13  0.70614781D-13 -0.17846797D-12
 -0.16732506D-12 -0.11914541D-12  0.84385640D-03  0.17028273D-13 -0.26031768D-12
  0.87982167D-04  0.38462328D-13  0.63289671D-13 -0.15971493D-04 -0.72263087D-15
  0.46453533D-15  0.78753942D-13 -0.20673434D-13 -0.58080508D-13  0.93217745D-05
 -0.10320840D-02  0.55103658D-14  0.60053546D-13 -0.43444545D-14 -0.55709091D-13
 -0.61225389D-05  0.91240439D-04 -0.32441509D-13  0.74844689D-14 -0.12509628D-13
  0.50251595D-14  0.37889096D-06 -0.41656973D-04 -0.58051689D-14 -0.86592456D-04
  0.12801873D-13 -0.59650098D-13  0.13295428D-03 -0.49671731D-14  0.81653294D-13