 cl2co-wavefunction
GAUSSIAN            192 MOL ORBITALS    372 PRIMITIVES        4 NUCLEI
  O    1    (CENTRE  1)   0.00000000  0.00000000  1.29143317  CHARGE =  8.0
  C    2    (CENTRE  2)   0.00000000  0.00000000 -0.93482295  CHARGE =  6.0
  Cl   3    (CENTRE  3)   0.00000000 -2.73418805 -2.77752892  CHARGE = 17.0
  Cl   4    (CENTRE  4)   0.00000000  2.73418805 -2.75863166  CHARGE = 17.0
CENTRE ASSIGNMENTS    1  1  1  1  1  1  1  1  1  1  1  1  1  1  1  1  1  1  1  1
CENTRE ASSIGNMENTS    1  1  1  1  1  1  1  1  1  1  1  1  1  1  1  1  1  1  1  1
CENTRE ASSIGNMENTS    1  1  1  1  1  1  1  1  1  1  1  1  1  1  1  1  1  1  1  1
CENTRE ASSIGNMENTS    1  1  1  1  1  1  1  1  1  1  1  1  2  2  2  2  2  2  2  2
CENTRE ASSIGNMENTS    2  2  2  2  2  2  2  2  2  2  2  2  2  2  2  2  2  2  2  2
CENTRE ASSIGNMENTS    2  2  2  2  2  2  2  2  2  2  2  2  2  2  2  2  2  2  2  2
CENTRE ASSIGNMENTS    2  2  2  2  2  2  2  2  2  2  2  2  2  2  2  2  2  2  2  2
CENTRE ASSIGNMENTS    2  2  2  2  3  3  3  3  3  3  3  3  3  3  3  3  3  3  3  3
CENTRE ASSIGNMENTS    3  3  3  3  3  3  3  3  3  3  3  3  3  3  3  3  3  3  3  3
CENTRE ASSIGNMENTS    3  3  3  3  3  3  3  3  3  3  3  3  3  3  3  3  3  3  3  3
CENTRE ASSIGNMENTS    3  3  3  3  3  3  3  3  3  3  3  3  3  3  3  3  3  3  3  3
CENTRE ASSIGNMENTS    3  3  3  3  3  3  3  3  3  3  3  3  3  3  3  3  3  3  3  3
CENTRE ASSIGNMENTS    3  3  3  3  3  3  3  3  3  3  3  3  3  3  3  3  3  3  4  4
CENTRE ASSIGNMENTS    4  4  4  4  4  4  4  4  4  4  4  4  4  4  4  4  4  4  4  4
CENTRE ASSIGNMENTS    4  4  4  4  4  4  4  4  4  4  4  4  4  4  4  4  4  4  4  4
CENTRE ASSIGNMENTS    4  4  4  4  4  4  4  4  4  4  4  4  4  4  4  4  4  4  4  4
CENTRE ASSIGNMENTS    4  4  4  4  4  4  4  4  4  4  4  4  4  4  4  4  4  4  4  4
CENTRE ASSIGNMENTS    4  4  4  4  4  4  4  4  4  4  4  4  4  4  4  4  4  4  4  4
CENTRE ASSIGNMENTS    4  4  4  4  4  4  4  4  4  4  4  4
TYPE ASSIGNMENTS      1  1  1  1  1  1  1  1  1  1  1  1  1  1  1  1  2  2  2  3
TYPE ASSIGNMENTS      3  3  4  4  4  2  3  4  2  3  4  2  3  4  5  6  7  8  9 10
TYPE ASSIGNMENTS      5  6  7  8  9 10  5  6  7  8  9 10 11 12 13 17 14 15 18 19
TYPE ASSIGNMENTS     16 20 11 12 13 17 14 15 18 19 16 20  1  1  1  1  1  1  1  1
TYPE ASSIGNMENTS      1  1  1  1  1  1  1  1  2  2  2  3  3  3  4  4  4  2  3  4
TYPE ASSIGNMENTS      2  3  4  2  3  4  5  6  7  8  9 10  5  6  7  8  9 10  5  6
TYPE ASSIGNMENTS      7  8  9 10 11 12 13 17 14 15 18 19 16 20 11 12 13 17 14 15
TYPE ASSIGNMENTS     18 19 16 20  1  1  1  1  1  1  1  1  1  1  1  1  1  1  1  1
TYPE ASSIGNMENTS      1  1  1  1  1  1  1  1  1  1  1  1  1  1  1  2  2  2  2  2
TYPE ASSIGNMENTS      2  3  3  3  3  3  3  4  4  4  4  4  4  2  2  2  2  2  2  3
TYPE ASSIGNMENTS      3  3  3  3  3  4  4  4  4  4  4  2  3  4  2  3  4  2  3  4
TYPE ASSIGNMENTS      5  6  7  8  9 10  5  6  7  8  9 10  5  6  7  8  9 10 11 12
TYPE ASSIGNMENTS     13 17 14 15 18 19 16 20 11 12 13 17 14 15 18 19 16 20  1  1
TYPE ASSIGNMENTS      1  1  1  1  1  1  1  1  1  1  1  1  1  1  1  1  1  1  1  1
TYPE ASSIGNMENTS      1  1  1  1  1  1  1  1  1  2  2  2  2  2  2  3  3  3  3  3
TYPE ASSIGNMENTS      3  4  4  4  4  4  4  2  2  2  2  2  2  3  3  3  3  3  3  4
TYPE ASSIGNMENTS      4  4  4  4  4  2  3  4  2  3  4  2  3  4  5  6  7  8  9 10
TYPE ASSIGNMENTS      5  6  7  8  9 10  5  6  7  8  9 10 11 12 13 17 14 15 18 19
TYPE ASSIGNMENTS     16 20 11 12 13 17 14 15 18 19 16 20
EXPONENTS  0.1533000D+05 0.2299000D+04 0.5224000D+03 0.1473000D+03 0.4755000D+02
EXPONENTS  0.1676000D+02 0.6207000D+01 0.5224000D+03 0.1473000D+03 0.4755000D+02
EXPONENTS  0.1676000D+02 0.6207000D+01 0.6882000D+00 0.1752000D+01 0.2384000D+00
EXPONENTS  0.7376000D-01 0.3446000D+02 0.7749000D+01 0.2280000D+01 0.3446000D+02
EXPONENTS  0.7749000D+01 0.2280000D+01 0.3446000D+02 0.7749000D+01 0.2280000D+01
EXPONENTS  0.7156000D+00 0.7156000D+00 0.7156000D+00 0.2140000D+00 0.2140000D+00
EXPONENTS  0.2140000D+00 0.5974000D-01 0.5974000D-01 0.5974000D-01 0.2314000D+01
EXPONENTS  0.2314000D+01 0.2314000D+01 0.2314000D+01 0.2314000D+01 0.2314000D+01
EXPONENTS  0.6450000D+00 0.6450000D+00 0.6450000D+00 0.6450000D+00 0.6450000D+00
EXPONENTS  0.6450000D+00 0.2140000D+00 0.2140000D+00 0.2140000D+00 0.2140000D+00
EXPONENTS  0.2140000D+00 0.2140000D+00 0.1428000D+01 0.1428000D+01 0.1428000D+01
EXPONENTS  0.1428000D+01 0.1428000D+01 0.1428000D+01 0.1428000D+01 0.1428000D+01
EXPONENTS  0.1428000D+01 0.1428000D+01 0.5000000D+00 0.5000000D+00 0.5000000D+00
EXPONENTS  0.5000000D+00 0.5000000D+00 0.5000000D+00 0.5000000D+00 0.5000000D+00
EXPONENTS  0.5000000D+00 0.5000000D+00 0.8236000D+04 0.1235000D+04 0.2808000D+03
EXPONENTS  0.7927000D+02 0.2559000D+02 0.8997000D+01 0.3319000D+01 0.2808000D+03
EXPONENTS  0.7927000D+02 0.2559000D+02 0.8997000D+01 0.3319000D+01 0.3643000D+00
EXPONENTS  0.9059000D+00 0.1285000D+00 0.4402000D-01 0.1871000D+02 0.4133000D+01
EXPONENTS  0.1200000D+01 0.1871000D+02 0.4133000D+01 0.1200000D+01 0.1871000D+02
EXPONENTS  0.4133000D+01 0.1200000D+01 0.3827000D+00 0.3827000D+00 0.3827000D+00
EXPONENTS  0.1209000D+00 0.1209000D+00 0.1209000D+00 0.3569000D-01 0.3569000D-01
EXPONENTS  0.3569000D-01 0.1097000D+01 0.1097000D+01 0.1097000D+01 0.1097000D+01
EXPONENTS  0.1097000D+01 0.1097000D+01 0.3180000D+00 0.3180000D+00 0.3180000D+00
EXPONENTS  0.3180000D+00 0.3180000D+00 0.3180000D+00 0.1000000D+00 0.1000000D+00
EXPONENTS  0.1000000D+00 0.1000000D+00 0.1000000D+00 0.1000000D+00 0.7610000D+00
EXPONENTS  0.7610000D+00 0.7610000D+00 0.7610000D+00 0.7610000D+00 0.7610000D+00
EXPONENTS  0.7610000D+00 0.7610000D+00 0.7610000D+00 0.7610000D+00 0.2680000D+00
EXPONENTS  0.2680000D+00 0.2680000D+00 0.2680000D+00 0.2680000D+00 0.2680000D+00
EXPONENTS  0.2680000D+00 0.2680000D+00 0.2680000D+00 0.2680000D+00 0.4561000D+06
EXPONENTS  0.6833000D+05 0.1555000D+05 0.4405000D+04 0.1439000D+04 0.5204000D+03
EXPONENTS  0.2031000D+03 0.8396000D+02 0.3620000D+02 0.1583000D+02 0.6334000D+01
EXPONENTS  0.4405000D+04 0.1439000D+04 0.5204000D+03 0.2031000D+03 0.8396000D+02
EXPONENTS  0.3620000D+02 0.1583000D+02 0.6334000D+01 0.2694000D+01 0.1439000D+04
EXPONENTS  0.2031000D+03 0.8396000D+02 0.3620000D+02 0.1583000D+02 0.6334000D+01
EXPONENTS  0.2694000D+01 0.4313000D+00 0.9768000D+00 0.1625000D+00 0.5910000D-01
EXPONENTS  0.6633000D+03 0.1568000D+03 0.4998000D+02 0.1842000D+02 0.7240000D+01
EXPONENTS  0.2922000D+01 0.6633000D+03 0.1568000D+03 0.4998000D+02 0.1842000D+02
EXPONENTS  0.7240000D+01 0.2922000D+01 0.6633000D+03 0.1568000D+03 0.4998000D+02
EXPONENTS  0.1842000D+02 0.7240000D+01 0.2922000D+01 0.1568000D+03 0.4998000D+02
EXPONENTS  0.1842000D+02 0.7240000D+01 0.2922000D+01 0.3818000D+00 0.1568000D+03
EXPONENTS  0.4998000D+02 0.1842000D+02 0.7240000D+01 0.2922000D+01 0.3818000D+00
EXPONENTS  0.1568000D+03 0.4998000D+02 0.1842000D+02 0.7240000D+01 0.2922000D+01
EXPONENTS  0.3818000D+00 0.1022000D+01 0.1022000D+01 0.1022000D+01 0.1301000D+00
EXPONENTS  0.1301000D+00 0.1301000D+00 0.4190000D-01 0.4190000D-01 0.4190000D-01
EXPONENTS  0.1046000D+01 0.1046000D+01 0.1046000D+01 0.1046000D+01 0.1046000D+01
EXPONENTS  0.1046000D+01 0.3440000D+00 0.3440000D+00 0.3440000D+00 0.3440000D+00
EXPONENTS  0.3440000D+00 0.3440000D+00 0.1350000D+00 0.1350000D+00 0.1350000D+00
EXPONENTS  0.1350000D+00 0.1350000D+00 0.1350000D+00 0.7060000D+00 0.7060000D+00
EXPONENTS  0.7060000D+00 0.7060000D+00 0.7060000D+00 0.7060000D+00 0.7060000D+00
EXPONENTS  0.7060000D+00 0.7060000D+00 0.7060000D+00 0.3120000D+00 0.3120000D+00
EXPONENTS  0.3120000D+00 0.3120000D+00 0.3120000D+00 0.3120000D+00 0.3120000D+00
EXPONENTS  0.3120000D+00 0.3120000D+00 0.3120000D+00 0.4561000D+06 0.6833000D+05
EXPONENTS  0.1555000D+05 0.4405000D+04 0.1439000D+04 0.5204000D+03 0.2031000D+03
EXPONENTS  0.8396000D+02 0.3620000D+02 0.1583000D+02 0.6334000D+01 0.4405000D+04
EXPONENTS  0.1439000D+04 0.5204000D+03 0.2031000D+03 0.8396000D+02 0.3620000D+02
EXPONENTS  0.1583000D+02 0.6334000D+01 0.2694000D+01 0.1439000D+04 0.2031000D+03
EXPONENTS  0.8396000D+02 0.3620000D+02 0.1583000D+02 0.6334000D+01 0.2694000D+01
EXPONENTS  0.4313000D+00 0.9768000D+00 0.1625000D+00 0.5910000D-01 0.6633000D+03
EXPONENTS  0.1568000D+03 0.4998000D+02 0.1842000D+02 0.7240000D+01 0.2922000D+01
EXPONENTS  0.6633000D+03 0.1568000D+03 0.4998000D+02 0.1842000D+02 0.7240000D+01
EXPONENTS  0.2922000D+01 0.6633000D+03 0.1568000D+03 0.4998000D+02 0.1842000D+02
EXPONENTS  0.7240000D+01 0.2922000D+01 0.1568000D+03 0.4998000D+02 0.1842000D+02
EXPONENTS  0.7240000D+01 0.2922000D+01 0.3818000D+00 0.1568000D+03 0.4998000D+02
EXPONENTS  0.1842000D+02 0.7240000D+01 0.2922000D+01 0.3818000D+00 0.1568000D+03
EXPONENTS  0.4998000D+02 0.1842000D+02 0.7240000D+01 0.2922000D+01 0.3818000D+00
EXPONENTS  0.1022000D+01 0.1022000D+01 0.1022000D+01 0.1301000D+00 0.1301000D+00
EXPONENTS  0.1301000D+00 0.4190000D-01 0.4190000D-01 0.4190000D-01 0.1046000D+01
EXPONENTS  0.1046000D+01 0.1046000D+01 0.1046000D+01 0.1046000D+01 0.1046000D+01
EXPONENTS  0.3440000D+00 0.3440000D+00 0.3440000D+00 0.3440000D+00 0.3440000D+00
EXPONENTS  0.3440000D+00 0.1350000D+00 0.1350000D+00 0.1350000D+00 0.1350000D+00
EXPONENTS  0.1350000D+00 0.1350000D+00 0.7060000D+00 0.7060000D+00 0.7060000D+00
EXPONENTS  0.7060000D+00 0.7060000D+00 0.7060000D+00 0.7060000D+00 0.7060000D+00
EXPONENTS  0.7060000D+00 0.7060000D+00 0.3120000D+00 0.3120000D+00 0.3120000D+00
EXPONENTS  0.3120000D+00 0.3120000D+00 0.3120000D+00 0.3120000D+00 0.3120000D+00
EXPONENTS  0.3120000D+00 0.3120000D+00
MO    1     MO 0.0        OCC NO =    2.0000388  ORB. ENERGY =    0.000000
 -0.25804953D-03 -0.48096189D-03 -0.81553846D-03 -0.12342307D-02 -0.15396056D-02
 -0.13212106D-02 -0.50595348D-03 -0.81182745D-07 -0.87103757D-06 -0.32108085D-05
 -0.93882157D-05 -0.11313256D-04  0.13628016D-04 -0.22974708D-04  0.22024199D-05
 -0.97408203D-05  0.24092831D-12  0.23361942D-12  0.15759828D-12  0.88263952D-03
  0.85586343D-03  0.57736041D-03 -0.65965759D-04 -0.63964597D-04 -0.43150139D-04
  0.68063788D-13  0.94737291D-03 -0.25617454D-04  0.20311809D-13  0.76995683D-03
 -0.21690853D-04 -0.33137040D-15  0.20305281D-04 -0.49552658D-06 -0.87126055D-05
  0.15149464D-04 -0.64368586D-05  0.30415325D-13  0.25649401D-13  0.19962424D-03
  0.67946713D-05 -0.13897480D-04  0.71028084D-05  0.86021984D-14 -0.13069530D-13
  0.75507368D-04 -0.18200013D-05 -0.21229887D-05  0.39429900D-05 -0.37691091D-13
 -0.43580541D-14 -0.11511207D-03 -0.10724624D-14  0.14957571D-03  0.15132409D-05
  0.14713590D-13 -0.21965357D-03 -0.29152209D-05 -0.11496203D-13 -0.22907356D-03
 -0.16245018D-05 -0.18884500D-12  0.17558938D-15  0.10088384D-04 -0.25232917D-05
 -0.74679140D-14  0.20152673D-03 -0.18088233D-05  0.69411459D-14 -0.23179188D-03
  0.93786984D-05  0.57224028D-13  0.16447542D-03  0.30661532D-03  0.51822166D-03
  0.77898382D-03  0.95684209D-03  0.80754097D-03  0.30365649D-03  0.17428403D-06
  0.13026651D-05  0.48683570D-05  0.13581958D-04  0.18196079D-04 -0.21486177D-04
  0.30939612D-05  0.12647542D-05 -0.30645019D-05 -0.17560308D-12 -0.16463905D-12
 -0.11723281D-12 -0.11234530D-02 -0.10533086D-02 -0.75001846D-03 -0.43818605D-04
 -0.41082727D-04 -0.29253349D-04 -0.48628441D-13 -0.14572196D-03 -0.35181252D-04
 -0.97921184D-14 -0.69597124D-04  0.69707168D-05  0.59561397D-15  0.84856709D-05
  0.81185119D-06  0.20276082D-05 -0.31254459D-04  0.29226850D-04  0.28696960D-12
  0.44373162D-13 -0.19083265D-03 -0.38846268D-05  0.13329066D-04 -0.94444395D-05
 -0.10959776D-13 -0.70427545D-14 -0.68154538D-04 -0.79522677D-08 -0.39414539D-05
  0.39494061D-05  0.17401529D-13  0.22225629D-14 -0.55399427D-04  0.42548991D-14
 -0.25787624D-03 -0.39971802D-05 -0.43942862D-14 -0.36049425D-04  0.65521106D-05
 -0.83704111D-14  0.80967814D-03  0.54394301D-05 -0.87769686D-13 -0.91534784D-15
  0.26314084D-03  0.80499648D-06  0.45687348D-14 -0.28638680D-04 -0.41298477D-05
 -0.18226913D-14 -0.76078383D-03  0.17148582D-05  0.84347655D-13  0.37347840D-03
  0.69873824D-03  0.12072647D-02  0.19571179D-02  0.29720714D-02  0.41308996D-02
  0.49113231D-02  0.43751772D-02  0.21728055D-02  0.34980331D-03  0.36906315D-05
  0.20645720D-05  0.68870667D-04  0.24000049D-03  0.86428061D-03  0.19051990D-02
  0.26819054D-02 -0.12793563D-03 -0.35097389D-02 -0.20752866D-02 -0.26832571D-06
 -0.32500797D-05 -0.67776985D-05 -0.19437259D-04 -0.10093498D-05  0.83822889D-04
  0.21658225D-03 -0.17646102D-03 -0.10646996D-03  0.10891270D-03  0.61223865D-04
  0.23712828D-08  0.31235342D-08  0.34457471D-08  0.28619628D-08  0.15197817D-08
  0.39211161D-09  0.45068230D+01  0.59365402D+01  0.65489331D+01  0.54394017D+01
  0.28884733D+01  0.74524120D+00 -0.64983706D+01 -0.85598742D+01 -0.94428812D+01
 -0.78430522D+01 -0.41648783D+01 -0.10745604D+01 -0.10141458D-12  0.98041094D-12
  0.13824818D-11  0.19773146D-11 -0.10012843D-13 -0.18133840D-11 -0.23099913D-03
  0.22331510D-02  0.31489760D-02  0.45038687D-02 -0.22806957D-04 -0.41304724D-02
  0.32198985D-03 -0.31127907D-02 -0.43893598D-02 -0.62779456D-02  0.31790633D-04
  0.57574682D-02  0.15542292D-10  0.28930168D-01 -0.41922772D-01 -0.11687750D-12
 -0.34035930D-03  0.54869136D-03 -0.45771577D-14 -0.10515404D-04  0.16790706D-04
  0.13817493D-04  0.73309132D-03 -0.74690881D-03  0.23684637D-12  0.14501406D-12
 -0.67027946D-03 -0.58077033D-04 -0.42669002D-03  0.48476706D-03 -0.13224782D-12
 -0.88239976D-13  0.33758488D-03 -0.44227066D-05 -0.21235976D-06  0.46350663D-05
  0.64186942D-14  0.92162939D-14  0.56575806D-05  0.50141688D-14  0.14667593D-04
  0.23947479D-05  0.80224868D-14 -0.19979840D-04 -0.37180635D-04 -0.23064993D-13
 -0.24022938D-04  0.29996392D-04  0.29190248D-14  0.55166755D-14 -0.73998936D-04
  0.42829697D-04 -0.23906245D-13 -0.11414560D-04 -0.50059136D-04  0.73562180D-14
  0.23341137D-03 -0.78429954D-04 -0.40259889D-13 -0.26423726D-03 -0.49435972D-03
 -0.85414395D-03 -0.13846677D-02 -0.21027508D-02 -0.29226257D-02 -0.34747780D-02
 -0.30954530D-02 -0.15372674D-02 -0.24748705D-03 -0.26111346D-05 -0.15345897D-05
 -0.51191345D-04 -0.17839159D-03 -0.64241699D-03 -0.14161283D-02 -0.19934516D-02
  0.95094138D-04  0.26087776D-02  0.15425539D-02  0.26714892D-06  0.32358258D-05
  0.67479735D-05  0.19352013D-04  0.10049231D-05 -0.83455267D-04 -0.21563238D-03
  0.17568711D-03  0.85574449D-04 -0.10178186D-03 -0.49940690D-04 -0.15532434D-08
 -0.20459849D-08 -0.22570416D-08 -0.18746498D-08 -0.99549104D-09 -0.25684189D-09
  0.47638936D+01  0.62751624D+01  0.69224864D+01  0.57496669D+01  0.30532327D+01
  0.78774999D+00  0.70643651D+01  0.93054215D+01  0.10265337D+02  0.85261657D+01
  0.45276306D+01  0.11681524D+01  0.69900711D-13 -0.67575510D-12 -0.95288523D-12
 -0.13628780D-11  0.69014221D-14  0.12498876D-11 -0.24201672D-03  0.23396620D-02
  0.32991676D-02  0.47186824D-02 -0.23894744D-04 -0.43274768D-02 -0.34968150D-03
  0.33804958D-02  0.47668519D-02  0.68178593D-02 -0.34524680D-04 -0.62526200D-02
 -0.10116336D-10  0.30581344D-01  0.45592259D-01  0.84522821D-13 -0.34804068D-03
 -0.57124164D-03  0.26621146D-14 -0.11223198D-04 -0.17374221D-04 -0.15972900D-04
 -0.76275628D-03  0.77872918D-03  0.19569881D-12 -0.99133226D-13 -0.72132573D-03
  0.59651093D-04  0.44848672D-03 -0.50813781D-03 -0.93097679D-13  0.62612811D-13
  0.38880365D-03  0.46719827D-05 -0.26343845D-05 -0.20375983D-05  0.39420582D-14
 -0.84591407D-14  0.49019234D-05 -0.54119457D-14  0.11708979D-04 -0.37368257D-05
 -0.12240494D-13 -0.16921263D-04  0.38093412D-04  0.28476331D-13 -0.18205673D-04
 -0.26882935D-04  0.48128155D-14 -0.28750108D-14 -0.78400574D-04 -0.40585494D-04
  0.19692516D-13 -0.11091435D-04  0.53457569D-04 -0.11067483D-13  0.24629316D-03
  0.68298913D-04 -0.29768142D-13
MO    2     MO 0.0        OCC NO =    2.0000377  ORB. ENERGY =    0.000000
  0.55737242D-02  0.10388505D-01  0.17615171D-01  0.26658688D-01  0.33254612D-01
  0.28537405D-01  0.10928310D-01  0.89882175D-06  0.96437676D-05  0.35548743D-04
  0.10394244D-03  0.12525569D-03 -0.15088376D-03  0.54560047D-03  0.19433408D-03
  0.29944499D-03  0.11371813D-11  0.11026833D-11  0.74386366D-12  0.91901390D-05
  0.89113435D-05  0.60115396D-05  0.15977002D-02  0.15492318D-02  0.10451026D-02
  0.31943304D-12  0.34132541D-04  0.58894843D-03  0.52974090D-13  0.23325234D-04
  0.49997464D-03 -0.47434578D-14  0.34384824D-06  0.10665973D-04  0.13118225D-03
 -0.21976739D-03  0.88585142D-04 -0.19440442D-13  0.58261516D-13  0.54790800D-05
 -0.77549382D-04  0.24963681D-03 -0.17208743D-03 -0.47046390D-14 -0.21129683D-13
 -0.29060114D-05  0.58019721D-04  0.22793042D-04 -0.80812763D-04  0.18670908D-13
  0.21341626D-15 -0.33355502D-05 -0.16892373D-13  0.38167503D-05  0.31687095D-04
  0.72108625D-13 -0.13069918D-04 -0.32849701D-04 -0.21431505D-13  0.16196671D-05
 -0.62211584D-04  0.98274412D-13  0.75508242D-14  0.24766397D-06  0.35546536D-04
 -0.26932570D-13  0.79117813D-05  0.31619181D-04  0.42800971D-14 -0.86547732D-05
 -0.13825879D-03 -0.28665511D-13 -0.39518877D-02 -0.73671149D-02 -0.12451428D-01
 -0.18716818D-01 -0.22990259D-01 -0.19402967D-01 -0.72960225D-02 -0.41857096D-05
 -0.31285586D-04 -0.11692138D-03 -0.32619244D-03 -0.43700794D-03  0.51602489D-03
 -0.10728346D-03 -0.16758729D-04  0.84702661D-04 -0.80510797D-12 -0.75483990D-12
 -0.53749097D-12 -0.21988830D-04 -0.20615926D-04 -0.14679767D-04  0.98046686D-03
  0.91925000D-03  0.65456076D-03 -0.16866491D-12 -0.95622976D-05  0.83154243D-03
 -0.15537332D-13 -0.72386797D-06 -0.19864427D-03  0.42120473D-14  0.52240144D-06
 -0.21887715D-04 -0.67578244D-04  0.68522118D-03 -0.61764294D-03 -0.14658527D-12
  0.22267673D-12 -0.18880435D-05  0.82291563D-04 -0.16926275D-03  0.86971187D-04
  0.60006268D-14 -0.47756665D-14 -0.47649346D-05 -0.12762651D-06  0.11592928D-03
 -0.11580166D-03 -0.81982160D-14  0.10946545D-13 -0.10806592D-05  0.17030783D-13
 -0.76790110D-05  0.13567609D-03 -0.30772310D-13 -0.42667832D-07 -0.17445284D-03
 -0.20320039D-13  0.23079701D-04 -0.23257543D-03  0.43806068D-13 -0.71180199D-14
  0.88807366D-05 -0.67507449D-04  0.23401172D-13 -0.13767548D-05  0.94415167D-04
 -0.20471118D-14 -0.25265455D-04  0.10810718D-03 -0.42138214D-13 -0.14068847D-02
 -0.26321311D-02 -0.45477387D-02 -0.73724188D-02 -0.11195725D-01 -0.15561005D-01
 -0.18500843D-01 -0.16481193D-01 -0.81849092D-02 -0.13177011D-02 -0.13902525D-04
 -0.68852474D-05 -0.22968033D-03 -0.80038996D-03 -0.28823338D-02 -0.63537463D-02
 -0.89440241D-02  0.42665910D-03  0.11704809D-01  0.69209801D-02  0.84691949D-07
  0.10258263D-05  0.21392527D-05  0.61350042D-05  0.31858222D-06 -0.26457113D-04
 -0.68360100D-04  0.55696592D-04  0.30764231D-03 -0.18376496D-03 -0.16333480D-03
  0.79936265D-09  0.10529476D-08  0.11615660D-08  0.96477154D-09  0.51232046D-09
  0.13218136D-09  0.42738057D+01  0.56296018D+01  0.62103321D+01  0.51581670D+01
  0.27391298D+01  0.70670981D+00 -0.73667019D+01 -0.97036697D+01 -0.10704667D+02
 -0.88910638D+01 -0.47214016D+01 -0.12181463D+01 -0.26647659D-13  0.25761242D-12
  0.36326040D-12  0.51955847D-12 -0.26309710D-14 -0.47648412D-12 -0.18447024D-03
  0.17833396D-02  0.25146950D-02  0.35966791D-02 -0.18213077D-04 -0.32984939D-02
  0.34519757D-03 -0.33371480D-02 -0.47057270D-02 -0.67304344D-02  0.34081973D-04
  0.61724432D-02  0.53933557D-11  0.27491626D-01 -0.47693054D-01 -0.25963579D-13
 -0.17665768D-03  0.24113893D-03 -0.31828140D-14 -0.12009546D-04  0.78851985D-05
  0.23218031D-04  0.45569742D-03 -0.47891545D-03 -0.11936267D-13  0.36673786D-13
 -0.42692001D-03  0.19560816D-05 -0.28876174D-03  0.28680566D-03 -0.34799376D-13
 -0.17190417D-13  0.46164068D-03 -0.10333853D-05  0.38500924D-04 -0.37467539D-04
  0.18103064D-15 -0.51898968D-14 -0.16456079D-04 -0.37589855D-14 -0.31946287D-04
  0.10162543D-04 -0.13983479D-13  0.49719589D-04  0.44719839D-05  0.25260436D-13
  0.46119273D-04 -0.34959612D-04  0.31100783D-14  0.48313716D-14 -0.50830208D-04
 -0.11765344D-04 -0.14894542D-14  0.13678016D-04 -0.42236026D-04 -0.13004661D-13
  0.13881261D-03  0.77532057D-04 -0.99778840D-14 -0.14837912D-02 -0.27760149D-02
 -0.47963380D-02 -0.77754275D-02 -0.11807733D-01 -0.16411638D-01 -0.19512180D-01
 -0.17382128D-01 -0.86323321D-02 -0.13897324D-02 -0.14662498D-04 -0.72638851D-05
 -0.24231105D-03 -0.84440549D-03 -0.30408409D-02 -0.67031553D-02 -0.94358792D-02
  0.45012219D-03  0.12348487D-01  0.73015828D-02  0.94777358D-07  0.11479853D-05
  0.23940022D-05  0.68655816D-05  0.35652009D-06 -0.29607717D-04 -0.76500656D-04
  0.62329133D-04  0.32900423D-03 -0.19189157D-03 -0.16888979D-03  0.27591139D-08
  0.36343984D-08  0.40093104D-08  0.33300462D-08  0.17683469D-08  0.45624275D-09
 -0.38720872D+01 -0.51004446D+01 -0.56265888D+01 -0.46733226D+01 -0.24816640D+01
 -0.64028228D+00 -0.68912594D+01 -0.90774007D+01 -0.10013794D+02 -0.83172399D+01
 -0.44166852D+01 -0.11395279D+01 -0.11224418D-12  0.10851045D-11  0.15301106D-11
  0.21884630D-11 -0.11082068D-13 -0.20070269D-11  0.16460296D-03 -0.15912755D-02
 -0.22438646D-02 -0.32093199D-02  0.16251544D-04  0.29432491D-02  0.32211711D-03
 -0.31140210D-02 -0.43910947D-02 -0.62804270D-02  0.31803198D-04  0.57597439D-02
  0.18198249D-10 -0.24905733D-01 -0.44630156D-01 -0.12872022D-12  0.14815353D-03
  0.20148138D-03 -0.68494762D-14  0.11050150D-04  0.65648959D-05  0.23068565D-04
  0.39949761D-03 -0.42256618D-03 -0.20444537D-12  0.15422704D-12  0.38762890D-03
  0.53122706D-05 -0.25602004D-03  0.25070777D-03  0.14777655D-12 -0.92170925D-13
 -0.44664966D-03 -0.86789985D-06  0.38325561D-04 -0.37457661D-04 -0.47603290D-14
  0.29983340D-14  0.17023866D-04  0.11424199D-14  0.33309385D-04  0.96576828D-05
 -0.42140663D-14 -0.51362554D-04  0.69209414D-05  0.78680648D-15 -0.48565601D-04
 -0.35893990D-04 -0.78750053D-14  0.91808277D-14  0.45252459D-04 -0.15515973D-04
 -0.23625441D-13 -0.13871495D-04 -0.39304940D-04 -0.39170421D-14 -0.12188588D-03
  0.85852859D-04  0.45436236D-13
MO    3     MO 0.0        OCC NO =    2.0000335  ORB. ENERGY =    0.000000
  0.22163622D-10  0.41309347D-10  0.70045803D-10  0.10600687D-09  0.13223522D-09
  0.11347749D-09  0.43455851D-10  0.29316898D-14  0.31455107D-13  0.11594945D-12
  0.33902938D-12  0.40854689D-12 -0.49213803D-12  0.19757561D-11 -0.12299447D-12
 -0.55186485D-13  0.23322199D-04  0.22614688D-04  0.15255735D-04  0.20082872D-12
  0.19473630D-12  0.13136796D-12 -0.14945518D-11 -0.14492125D-11 -0.97763022D-12
  0.70297793D-05  0.20875658D-12 -0.19918947D-12  0.42113679D-05  0.17828111D-12
 -0.10191389D-12  0.27681875D-06  0.35198890D-15 -0.17051086D-14 -0.86274628D-13
 -0.79115393D-14  0.94186168D-13 -0.11434546D-03  0.47076046D-05  0.66433216D-14
  0.53088911D-14 -0.27091020D-13  0.21782129D-13 -0.34704764D-04 -0.15445125D-05
  0.23827438D-13 -0.12608329D-13 -0.23747810D-14  0.14983110D-13  0.15922820D-03
 -0.78296177D-06 -0.30135458D-13  0.10354887D-06  0.28579885D-13  0.29235145D-13
  0.21318393D-05 -0.50246588D-13 -0.60881193D-13 -0.24424859D-05 -0.35493066D-13
 -0.26824241D-13  0.78480700D-03  0.14795525D-06  0.32890742D-14 -0.60654849D-14
 -0.10017623D-05  0.44866505D-13  0.23650304D-14  0.55789652D-06 -0.54733727D-13
  0.15831424D-13 -0.24264471D-03 -0.16080992D-10 -0.29978208D-10 -0.50667256D-10
 -0.76162336D-10 -0.93551788D-10 -0.78954409D-10 -0.29688919D-10 -0.14974936D-14
 -0.11192837D-13 -0.41830187D-13 -0.11669971D-12 -0.15634543D-12  0.18461480D-12
 -0.13506355D-11  0.17639079D-12  0.31217453D-13 -0.26472503D-04 -0.24819654D-04
 -0.17673072D-04 -0.99815473D-13 -0.93583351D-13 -0.66636921D-13 -0.16274235D-14
 -0.15258129D-14 -0.10864697D-14 -0.41480539D-05 -0.70313567D-13 -0.14899505D-12
 -0.79599273D-06 -0.10819929D-12  0.55602813D-14 -0.64281562D-07  0.10369278D-14
  0.71545607D-15  0.64001930D-13 -0.10444123D-12  0.40439301D-13 -0.12113512D-02
  0.46728507D-05 -0.51625456D-13 -0.38958399D-13  0.34699520D-13  0.42588790D-14
  0.49148437D-04 -0.36808513D-05  0.53518946D-13 -0.20976822D-14 -0.15534770D-13
  0.17632452D-13 -0.72920179D-04 -0.51079988D-06  0.39306134D-14  0.42756383D-06
 -0.61216421D-13 -0.38332417D-13 -0.12147374D-05 -0.99649125D-14  0.52445618D-13
 -0.67954122D-07  0.19361417D-12  0.62551634D-13  0.35355767D-03 -0.97778949D-07
  0.60063190D-13  0.18996644D-13  0.11519578D-05  0.17736008D-14 -0.14725738D-13
 -0.85862093D-06 -0.18196317D-12 -0.42264193D-13 -0.35687420D-03 -0.38658205D-10
 -0.72325376D-10 -0.12496221D-09 -0.20257842D-09 -0.30763477D-09 -0.42758339D-09
 -0.50836388D-09 -0.45286821D-09 -0.22490393D-09 -0.36207630D-10 -0.38201188D-12
 -0.29062752D-13 -0.96948474D-12 -0.33784602D-11 -0.12166382D-10 -0.26819276D-10
 -0.37752884D-10  0.18009356D-11  0.49406205D-10  0.29213580D-10 -0.60621669D-15
 -0.73427645D-14 -0.15312561D-13 -0.43913760D-13 -0.22803804D-14  0.18937743D-12
  0.48931491D-12 -0.39867076D-12  0.19492781D-11 -0.19630384D-12 -0.39160830D-13
 -0.82069233D+01 -0.10810438D+02 -0.11925605D+02 -0.99051488D+01 -0.52599089D+01
 -0.13570840D+01  0.64391060D-09  0.84818089D-09  0.93567629D-09  0.77715242D-09
  0.41268950D-09  0.10647605D-09 -0.57210595D-09 -0.75359737D-09 -0.83133586D-09
 -0.69048952D-09 -0.36666910D-09 -0.94602544D-10  0.35876556D-03 -0.34683146D-02
 -0.48906857D-02 -0.69949743D-02  0.35421565D-04  0.64150511D-02 -0.37472839D-13
  0.36226330D-12  0.51082906D-12  0.73062069D-12 -0.36997603D-14 -0.67004808D-12
  0.29882348D-13 -0.28888331D-12 -0.40735563D-12 -0.58262630D-12  0.29503376D-14
  0.53432327D-12 -0.53639595D-01  0.43820093D-11 -0.34911047D-11  0.42302159D-03
 -0.12638312D-12  0.60608924D-13  0.15125055D-04 -0.41403355D-14  0.14241509D-14
 -0.32151899D-13  0.16143233D-12 -0.12928043D-12 -0.90845370D-03 -0.51064494D-03
 -0.13901351D-14  0.68363287D-14 -0.87364956D-13  0.80528628D-13  0.47259323D-03
  0.31767484D-03 -0.43962816D-13  0.16636183D-14 -0.86259045D-14  0.69622862D-14
 -0.21783020D-04 -0.37246229D-04 -0.79000007D-14 -0.22873258D-04  0.62955920D-14
 -0.33503612D-14 -0.42211470D-04 -0.68117635D-14 -0.36725230D-14  0.11083124D-03
 -0.12075012D-13  0.13723607D-13 -0.88869938D-05 -0.17530170D-04 -0.11608920D-13
  0.16344730D-13  0.90891703D-04  0.85479811D-15 -0.38120603D-14 -0.38301195D-04
  0.33971962D-13 -0.45222130D-13  0.14700086D-03 -0.18911191D-10 -0.35380821D-10
 -0.61130210D-10 -0.99099253D-10 -0.15049173D-09 -0.20916934D-09 -0.24868632D-09
 -0.22153841D-09 -0.11002066D-09 -0.17712396D-10 -0.18687624D-12 -0.97827746D-13
 -0.32633698D-11 -0.11372190D-10 -0.40953099D-10 -0.90276011D-10 -0.12707949D-09
  0.60621057D-11  0.16630558D-09  0.98335447D-10 -0.21664446D-14 -0.26240934D-13
 -0.54722702D-13 -0.15693518D-12 -0.81494255D-14  0.67678062D-12  0.17486711D-11
 -0.14247349D-11  0.62989893D-11 -0.95678254D-13 -0.40245779D-14  0.82214587D+01
  0.10829584D+02  0.11946727D+02  0.99226920D+01  0.52692248D+01  0.13594875D+01
  0.20665838D-08  0.27221742D-08  0.30029843D-08  0.24942136D-08  0.13244966D-08
  0.34172705D-09  0.22370242D-08  0.29466842D-08  0.32506539D-08  0.26999226D-08
  0.14337338D-08  0.36991082D-09 -0.35961086D-03  0.34764864D-02  0.49022087D-02
  0.70114553D-02 -0.35505023D-04 -0.64301658D-02 -0.95181554D-13  0.92015402D-12
  0.12975132D-11  0.18557872D-11 -0.93974449D-14 -0.17019318D-11 -0.11137156D-12
  0.10766686D-11  0.15182150D-11  0.21714491D-11 -0.10995913D-13 -0.19914237D-11
  0.53750075D-01  0.13393875D-10  0.14409159D-10 -0.42327822D-03 -0.13155376D-12
 -0.13662547D-12 -0.15045969D-04 -0.43675240D-14 -0.43317210D-14 -0.35942382D-13
 -0.18517908D-12  0.22112146D-12 -0.91270698D-03  0.50511072D-03 -0.36502392D-12
  0.62998436D-14  0.14307656D-12 -0.14937641D-12  0.47948225D-03 -0.31812531D-03
  0.14833567D-12  0.10947041D-14 -0.52785246D-14  0.41838205D-14 -0.21777710D-04
  0.37169701D-04 -0.49221036D-14  0.23138213D-04 -0.73673194D-15 -0.37713716D-14
  0.41320543D-04  0.41645902D-14  0.39741835D-14 -0.11073518D-03 -0.19543944D-14
  0.73399312D-14 -0.57290644D-05  0.17775713D-04 -0.25458560D-13 -0.76465303D-14
 -0.92463597D-04  0.31317500D-14  0.15586972D-13  0.39136457D-04  0.73243930D-13
  0.73526193D-14  0.14696391D-03
MO    4     MO 0.0        OCC NO =    2.0000300  ORB. ENERGY =    0.000000
 -0.11275786D-11 -0.21016211D-11 -0.35635940D-11 -0.53931205D-11 -0.67274927D-11
 -0.57731897D-11 -0.22108249D-11 -0.35611677D-15 -0.38208992D-14 -0.14084554D-13
 -0.41182410D-13 -0.49626806D-13  0.59780747D-13 -0.72363704D-13  0.62118028D-13
  0.54085342D-13 -0.52071510D-02 -0.50491849D-02 -0.34061503D-02 -0.24664463D-12
 -0.23916232D-12 -0.16133749D-12  0.72679295D-12  0.70474469D-12  0.47541660D-12
 -0.14851018D-02 -0.30033835D-13  0.21013870D-12 -0.31359445D-03  0.49293599D-14
  0.12865732D-12  0.14307235D-04 -0.50560994D-15  0.24651437D-14  0.35433400D-13
 -0.24031261D-13 -0.11402138D-13 -0.36190478D-05 -0.38951239D-03  0.15807729D-13
 -0.39170182D-14  0.51810170D-13 -0.47893152D-13  0.27070940D-05  0.17563999D-03
  0.32092023D-14  0.16892413D-13  0.30277414D-15 -0.17195188D-13  0.72336208D-06
  0.28425312D-04  0.23539246D-14  0.62593238D-04  0.13339758D-14 -0.14868113D-13
 -0.33506489D-03 -0.19455505D-13  0.25482137D-13  0.14728517D-03  0.15453577D-13
  0.19122202D-13  0.17722167D-05 -0.26842011D-04  0.99736693D-15  0.50998447D-14
  0.13990127D-03  0.10700476D-13 -0.10709510D-14 -0.59375238D-04 -0.13692577D-13
 -0.14228583D-13 -0.31172390D-05  0.14276542D-10  0.26614351D-10  0.44981879D-10
  0.67616153D-10  0.83054333D-10  0.70094927D-10  0.26357523D-10  0.14061400D-14
  0.10510025D-13  0.39278364D-13  0.10958052D-12  0.14680769D-12 -0.17335250D-12
  0.11443549D-11  0.39619398D-13  0.31397467D-13  0.37210635D-02  0.34887336D-02
  0.24841861D-02  0.24376714D-12  0.22854719D-12  0.16273921D-12  0.33913967D-12
  0.31796500D-12  0.22641002D-12  0.84672195D-03 -0.13938381D-13  0.22980520D-12
  0.87514099D-04  0.94230490D-14 -0.60947197D-13 -0.16000752D-04  0.14144071D-14
 -0.46571191D-14 -0.53348991D-13  0.14321126D-12 -0.89862265D-13  0.67106708D-05
 -0.10359238D-02 -0.45297966D-13  0.12399501D-13 -0.32658280D-13  0.20258779D-13
 -0.34931222D-05  0.94322583D-04  0.22987535D-13 -0.23484485D-14  0.26616952D-13
 -0.24268503D-13 -0.25825350D-06 -0.41456568D-04 -0.17128099D-14 -0.87602677D-04
 -0.10239337D-13  0.43249764D-13  0.13684682D-03 -0.91208191D-14 -0.75384462D-13