 cl2co-wavefunction
GAUSSIAN            192 MOL ORBITALS    372 PRIMITIVES        4 NUCLEI
  O    1    (CENTRE  1)   0.00000000  0.00000000  1.29143317  CHARGE =  8.0
  C    2    (CENTRE  2)   0.00000000  0.00000000 -0.93482295  CHARGE =  6.0
  Cl   3    (CENTRE  3)   0.00000000 -2.71529079 -2.77752892  CHARGE = 17.0
  Cl   4    (CENTRE  4)   0.00000000  2.73418805 -2.77752892  CHARGE = 17.0
CENTRE ASSIGNMENTS    1  1  1  1  1  1  1  1  1  1  1  1  1  1  1  1  1  1  1  1
CENTRE ASSIGNMENTS    1  1  1  1  1  1  1  1  1  1  1  1  1  1  1  1  1  1  1  1
CENTRE ASSIGNMENTS    1  1  1  1  1  1  1  1  1  1  1  1  1  1  1  1  1  1  1  1
CENTRE ASSIGNMENTS    1  1  1  1  1  1  1  1  1  1  1  1  2  2  2  2  2  2  2  2
CENTRE ASSIGNMENTS    2  2  2  2  2  2  2  2  2  2  2  2  2  2  2  2  2  2  2  2
CENTRE ASSIGNMENTS    2  2  2  2  2  2  2  2  2  2  2  2  2  2  2  2  2  2  2  2
CENTRE ASSIGNMENTS    2  2  2  2  2  2  2  2  2  2  2  2  2  2  2  2  2  2  2  2
CENTRE ASSIGNMENTS    2  2  2  2  3  3  3  3  3  3  3  3  3  3  3  3  3  3  3  3
CENTRE ASSIGNMENTS    3  3  3  3  3  3  3  3  3  3  3  3  3  3  3  3  3  3  3  3
CENTRE ASSIGNMENTS    3  3  3  3  3  3  3  3  3  3  3  3  3  3  3  3  3  3  3  3
CENTRE ASSIGNMENTS    3  3  3  3  3  3  3  3  3  3  3  3  3  3  3  3  3  3  3  3
CENTRE ASSIGNMENTS    3  3  3  3  3  3  3  3  3  3  3  3  3  3  3  3  3  3  3  3
CENTRE ASSIGNMENTS    3  3  3  3  3  3  3  3  3  3  3  3  3  3  3  3  3  3  4  4
CENTRE ASSIGNMENTS    4  4  4  4  4  4  4  4  4  4  4  4  4  4  4  4  4  4  4  4
CENTRE ASSIGNMENTS    4  4  4  4  4  4  4  4  4  4  4  4  4  4  4  4  4  4  4  4
CENTRE ASSIGNMENTS    4  4  4  4  4  4  4  4  4  4  4  4  4  4  4  4  4  4  4  4
CENTRE ASSIGNMENTS    4  4  4  4  4  4  4  4  4  4  4  4  4  4  4  4  4  4  4  4
CENTRE ASSIGNMENTS    4  4  4  4  4  4  4  4  4  4  4  4  4  4  4  4  4  4  4  4
CENTRE ASSIGNMENTS    4  4  4  4  4  4  4  4  4  4  4  4
TYPE ASSIGNMENTS      1  1  1  1  1  1  1  1  1  1  1  1  1  1  1  1  2  2  2  3
TYPE ASSIGNMENTS      3  3  4  4  4  2  3  4  2  3  4  2  3  4  5  6  7  8  9 10
TYPE ASSIGNMENTS      5  6  7  8  9 10  5  6  7  8  9 10 11 12 13 17 14 15 18 19
TYPE ASSIGNMENTS     16 20 11 12 13 17 14 15 18 19 16 20  1  1  1  1  1  1  1  1
TYPE ASSIGNMENTS      1  1  1  1  1  1  1  1  2  2  2  3  3  3  4  4  4  2  3  4
TYPE ASSIGNMENTS      2  3  4  2  3  4  5  6  7  8  9 10  5  6  7  8  9 10  5  6
TYPE ASSIGNMENTS      7  8  9 10 11 12 13 17 14 15 18 19 16 20 11 12 13 17 14 15
TYPE ASSIGNMENTS     18 19 16 20  1  1  1  1  1  1  1  1  1  1  1  1  1  1  1  1
TYPE ASSIGNMENTS      1  1  1  1  1  1  1  1  1  1  1  1  1  1  1  2  2  2  2  2
TYPE ASSIGNMENTS      2  3  3  3  3  3  3  4  4  4  4  4  4  2  2  2  2  2  2  3
TYPE ASSIGNMENTS      3  3  3  3  3  4  4  4  4  4  4  2  3  4  2  3  4  2  3  4
TYPE ASSIGNMENTS      5  6  7  8  9 10  5  6  7  8  9 10  5  6  7  8  9 10 11 12
TYPE ASSIGNMENTS     13 17 14 15 18 19 16 20 11 12 13 17 14 15 18 19 16 20  1  1
TYPE ASSIGNMENTS      1  1  1  1  1  1  1  1  1  1  1  1  1  1  1  1  1  1  1  1
TYPE ASSIGNMENTS      1  1  1  1  1  1  1  1  1  2  2  2  2  2  2  3  3  3  3  3
TYPE ASSIGNMENTS      3  4  4  4  4  4  4  2  2  2  2  2  2  3  3  3  3  3  3  4
TYPE ASSIGNMENTS      4  4  4  4  4  2  3  4  2  3  4  2  3  4  5  6  7  8  9 10
TYPE ASSIGNMENTS      5  6  7  8  9 10  5  6  7  8  9 10 11 12 13 17 14 15 18 19
TYPE ASSIGNMENTS     16 20 11 12 13 17 14 15 18 19 16 20
EXPONENTS  0.1533000D+05 0.2299000D+04 0.5224000D+03 0.1473000D+03 0.4755000D+02
EXPONENTS  0.1676000D+02 0.6207000D+01 0.5224000D+03 0.1473000D+03 0.4755000D+02
EXPONENTS  0.1676000D+02 0.6207000D+01 0.6882000D+00 0.1752000D+01 0.2384000D+00
EXPONENTS  0.7376000D-01 0.3446000D+02 0.7749000D+01 0.2280000D+01 0.3446000D+02
EXPONENTS  0.7749000D+01 0.2280000D+01 0.3446000D+02 0.7749000D+01 0.2280000D+01
EXPONENTS  0.7156000D+00 0.7156000D+00 0.7156000D+00 0.2140000D+00 0.2140000D+00
EXPONENTS  0.2140000D+00 0.5974000D-01 0.5974000D-01 0.5974000D-01 0.2314000D+01
EXPONENTS  0.2314000D+01 0.2314000D+01 0.2314000D+01 0.2314000D+01 0.2314000D+01
EXPONENTS  0.6450000D+00 0.6450000D+00 0.6450000D+00 0.6450000D+00 0.6450000D+00
EXPONENTS  0.6450000D+00 0.2140000D+00 0.2140000D+00 0.2140000D+00 0.2140000D+00
EXPONENTS  0.2140000D+00 0.2140000D+00 0.1428000D+01 0.1428000D+01 0.1428000D+01
EXPONENTS  0.1428000D+01 0.1428000D+01 0.1428000D+01 0.1428000D+01 0.1428000D+01
EXPONENTS  0.1428000D+01 0.1428000D+01 0.5000000D+00 0.5000000D+00 0.5000000D+00
EXPONENTS  0.5000000D+00 0.5000000D+00 0.5000000D+00 0.5000000D+00 0.5000000D+00
EXPONENTS  0.5000000D+00 0.5000000D+00 0.8236000D+04 0.1235000D+04 0.2808000D+03
EXPONENTS  0.7927000D+02 0.2559000D+02 0.8997000D+01 0.3319000D+01 0.2808000D+03
EXPONENTS  0.7927000D+02 0.2559000D+02 0.8997000D+01 0.3319000D+01 0.3643000D+00
EXPONENTS  0.9059000D+00 0.1285000D+00 0.4402000D-01 0.1871000D+02 0.4133000D+01
EXPONENTS  0.1200000D+01 0.1871000D+02 0.4133000D+01 0.1200000D+01 0.1871000D+02
EXPONENTS  0.4133000D+01 0.1200000D+01 0.3827000D+00 0.3827000D+00 0.3827000D+00
EXPONENTS  0.1209000D+00 0.1209000D+00 0.1209000D+00 0.3569000D-01 0.3569000D-01
EXPONENTS  0.3569000D-01 0.1097000D+01 0.1097000D+01 0.1097000D+01 0.1097000D+01
EXPONENTS  0.1097000D+01 0.1097000D+01 0.3180000D+00 0.3180000D+00 0.3180000D+00
EXPONENTS  0.3180000D+00 0.3180000D+00 0.3180000D+00 0.1000000D+00 0.1000000D+00
EXPONENTS  0.1000000D+00 0.1000000D+00 0.1000000D+00 0.1000000D+00 0.7610000D+00
EXPONENTS  0.7610000D+00 0.7610000D+00 0.7610000D+00 0.7610000D+00 0.7610000D+00
EXPONENTS  0.7610000D+00 0.7610000D+00 0.7610000D+00 0.7610000D+00 0.2680000D+00
EXPONENTS  0.2680000D+00 0.2680000D+00 0.2680000D+00 0.2680000D+00 0.2680000D+00
EXPONENTS  0.2680000D+00 0.2680000D+00 0.2680000D+00 0.2680000D+00 0.4561000D+06
EXPONENTS  0.6833000D+05 0.1555000D+05 0.4405000D+04 0.1439000D+04 0.5204000D+03
EXPONENTS  0.2031000D+03 0.8396000D+02 0.3620000D+02 0.1583000D+02 0.6334000D+01
EXPONENTS  0.4405000D+04 0.1439000D+04 0.5204000D+03 0.2031000D+03 0.8396000D+02
EXPONENTS  0.3620000D+02 0.1583000D+02 0.6334000D+01 0.2694000D+01 0.1439000D+04
EXPONENTS  0.2031000D+03 0.8396000D+02 0.3620000D+02 0.1583000D+02 0.6334000D+01
EXPONENTS  0.2694000D+01 0.4313000D+00 0.9768000D+00 0.1625000D+00 0.5910000D-01
EXPONENTS  0.6633000D+03 0.1568000D+03 0.4998000D+02 0.1842000D+02 0.7240000D+01
EXPONENTS  0.2922000D+01 0.6633000D+03 0.1568000D+03 0.4998000D+02 0.1842000D+02
EXPONENTS  0.7240000D+01 0.2922000D+01 0.6633000D+03 0.1568000D+03 0.4998000D+02
EXPONENTS  0.1842000D+02 0.7240000D+01 0.2922000D+01 0.1568000D+03 0.4998000D+02
EXPONENTS  0.1842000D+02 0.7240000D+01 0.2922000D+01 0.3818000D+00 0.1568000D+03
EXPONENTS  0.4998000D+02 0.1842000D+02 0.7240000D+01 0.2922000D+01 0.3818000D+00
EXPONENTS  0.1568000D+03 0.4998000D+02 0.1842000D+02 0.7240000D+01 0.2922000D+01
EXPONENTS  0.3818000D+00 0.1022000D+01 0.1022000D+01 0.1022000D+01 0.1301000D+00
EXPONENTS  0.1301000D+00 0.1301000D+00 0.4190000D-01 0.4190000D-01 0.4190000D-01
EXPONENTS  0.1046000D+01 0.1046000D+01 0.1046000D+01 0.1046000D+01 0.1046000D+01
EXPONENTS  0.1046000D+01 0.3440000D+00 0.3440000D+00 0.3440000D+00 0.3440000D+00
EXPONENTS  0.3440000D+00 0.3440000D+00 0.1350000D+00 0.1350000D+00 0.1350000D+00
EXPONENTS  0.1350000D+00 0.1350000D+00 0.1350000D+00 0.7060000D+00 0.7060000D+00
EXPONENTS  0.7060000D+00 0.7060000D+00 0.7060000D+00 0.7060000D+00 0.7060000D+00
EXPONENTS  0.7060000D+00 0.7060000D+00 0.7060000D+00 0.3120000D+00 0.3120000D+00
EXPONENTS  0.3120000D+00 0.3120000D+00 0.3120000D+00 0.3120000D+00 0.3120000D+00
EXPONENTS  0.3120000D+00 0.3120000D+00 0.3120000D+00 0.4561000D+06 0.6833000D+05
EXPONENTS  0.1555000D+05 0.4405000D+04 0.1439000D+04 0.5204000D+03 0.2031000D+03
EXPONENTS  0.8396000D+02 0.3620000D+02 0.1583000D+02 0.6334000D+01 0.4405000D+04
EXPONENTS  0.1439000D+04 0.5204000D+03 0.2031000D+03 0.8396000D+02 0.3620000D+02
EXPONENTS  0.1583000D+02 0.6334000D+01 0.2694000D+01 0.1439000D+04 0.2031000D+03
EXPONENTS  0.8396000D+02 0.3620000D+02 0.1583000D+02 0.6334000D+01 0.2694000D+01
EXPONENTS  0.4313000D+00 0.9768000D+00 0.1625000D+00 0.5910000D-01 0.6633000D+03
EXPONENTS  0.1568000D+03 0.4998000D+02 0.1842000D+02 0.7240000D+01 0.2922000D+01
EXPONENTS  0.6633000D+03 0.1568000D+03 0.4998000D+02 0.1842000D+02 0.7240000D+01
EXPONENTS  0.2922000D+01 0.6633000D+03 0.1568000D+03 0.4998000D+02 0.1842000D+02
EXPONENTS  0.7240000D+01 0.2922000D+01 0.1568000D+03 0.4998000D+02 0.1842000D+02
EXPONENTS  0.7240000D+01 0.2922000D+01 0.3818000D+00 0.1568000D+03 0.4998000D+02
EXPONENTS  0.1842000D+02 0.7240000D+01 0.2922000D+01 0.3818000D+00 0.1568000D+03
EXPONENTS  0.4998000D+02 0.1842000D+02 0.7240000D+01 0.2922000D+01 0.3818000D+00
EXPONENTS  0.1022000D+01 0.1022000D+01 0.1022000D+01 0.1301000D+00 0.1301000D+00
EXPONENTS  0.1301000D+00 0.4190000D-01 0.4190000D-01 0.4190000D-01 0.1046000D+01
EXPONENTS  0.1046000D+01 0.1046000D+01 0.1046000D+01 0.1046000D+01 0.1046000D+01
EXPONENTS  0.3440000D+00 0.3440000D+00 0.3440000D+00 0.3440000D+00 0.3440000D+00
EXPONENTS  0.3440000D+00 0.1350000D+00 0.1350000D+00 0.1350000D+00 0.1350000D+00
EXPONENTS  0.1350000D+00 0.1350000D+00 0.7060000D+00 0.7060000D+00 0.7060000D+00
EXPONENTS  0.7060000D+00 0.7060000D+00 0.7060000D+00 0.7060000D+00 0.7060000D+00
EXPONENTS  0.7060000D+00 0.7060000D+00 0.3120000D+00 0.3120000D+00 0.3120000D+00
EXPONENTS  0.3120000D+00 0.3120000D+00 0.3120000D+00 0.3120000D+00 0.3120000D+00
EXPONENTS  0.3120000D+00 0.3120000D+00
MO    1     MO 0.0        OCC NO =    2.0000388  ORB. ENERGY =    0.000000
 -0.31774693D-03 -0.59222802D-03 -0.10042058D-02 -0.15197588D-02 -0.18957793D-02
 -0.16268606D-02 -0.62300120D-03 -0.56193474D-07 -0.60291909D-06 -0.22224733D-05
 -0.64983816D-05 -0.78308658D-05  0.94331077D-05 -0.30146329D-04 -0.31697828D-05
 -0.13586267D-04  0.22703939D-12  0.22015183D-12  0.14851313D-12 -0.86179172D-03
 -0.83564808D-03 -0.56372326D-03 -0.82950885D-04 -0.80434455D-04 -0.54260608D-04
  0.63802223D-13 -0.93690152D-03 -0.37823153D-04  0.16455730D-13 -0.75796529D-03
 -0.31055174D-04 -0.30122684D-16 -0.19489422D-04 -0.55477136D-06 -0.73252916D-05
  0.11078444D-04 -0.37531520D-05  0.26183712D-13  0.32610351D-13 -0.19254177D-03
  0.40027421D-05 -0.13636653D-04  0.96339108D-05  0.85052848D-14 -0.12580545D-13
 -0.78171819D-04 -0.35825603D-05 -0.11198378D-05  0.47023981D-05 -0.40915686D-13
 -0.26920758D-14  0.11166901D-03 -0.16260819D-14 -0.14791304D-03 -0.26997612D-05
  0.19823548D-13  0.22157508D-03  0.89145461D-06 -0.14945303D-13  0.22216403D-03
  0.72078290D-05 -0.19501596D-12  0.36639364D-15 -0.10861129D-04 -0.12316800D-05
 -0.71668633D-14 -0.20108446D-03 -0.21273370D-05  0.60676824D-14  0.23366785D-03
  0.58223769D-05  0.62634847D-13  0.19521148D-03  0.36391352D-03  0.61506342D-03
  0.92455504D-03  0.11356503D-02  0.95844877D-03  0.36040177D-03  0.22229474D-06
  0.16615155D-05  0.62094626D-05  0.17323434D-04  0.23208625D-04 -0.27405059D-04
  0.55471566D-05  0.71665811D-07 -0.47002299D-05 -0.17080266D-12 -0.16013835D-12
 -0.11402805D-12  0.11006906D-02  0.10319674D-02  0.73482227D-03 -0.64210130D-04
 -0.60201078D-04 -0.42866754D-04 -0.41259848D-13  0.13708881D-03 -0.51290066D-04
 -0.27973051D-14  0.73184434D-04  0.13054673D-04  0.29713013D-15 -0.88100576D-05
  0.99883190D-06  0.40353055D-05 -0.42998519D-04  0.38963214D-04  0.32209608D-12
  0.44374438D-13  0.18831968D-03 -0.44356738D-05  0.17111979D-04 -0.12676305D-04
 -0.14589780D-13 -0.92340659D-14  0.65283740D-04  0.72343629D-07 -0.56387229D-05
  0.55663793D-05  0.18505607D-13  0.10461155D-14  0.53620466D-04  0.54224150D-14
  0.25589137D-03 -0.90526262D-05 -0.66337536D-14  0.39266140D-04  0.12730903D-04
 -0.96334915D-14 -0.80694025D-03  0.14426976D-04 -0.87127191D-13 -0.17268506D-14
 -0.25990494D-03  0.47920698D-05  0.56452477D-14  0.27163902D-04 -0.55507551D-05
 -0.46469580D-15  0.75255093D-03 -0.88254544D-05  0.92579174D-13 -0.11507084D-03
 -0.21528526D-03 -0.37196519D-03 -0.60299927D-03 -0.91571226D-03 -0.12727539D-02
 -0.15132068D-02 -0.13480172D-02 -0.66945386D-03 -0.10777641D-03 -0.11371048D-05
 -0.83234473D-06 -0.27765627D-04 -0.96757651D-04 -0.34843997D-03 -0.76809255D-03
 -0.10812264D-02  0.51578023D-04  0.14149725D-02  0.83666439D-03  0.28373898D-06
  0.34367719D-05  0.71670255D-05  0.20553781D-04  0.10673292D-05 -0.88637873D-04
 -0.22902324D-03  0.18659736D-03  0.45250936D-04 -0.85921044D-04 -0.47825367D-04
  0.24866400D-08  0.32754866D-08  0.36133744D-08  0.30011904D-08  0.15937154D-08
  0.41118690D-09 -0.48935688D+01 -0.64459748D+01 -0.71109192D+01 -0.59061752D+01
 -0.31363429D+01 -0.80919287D+00  0.70914416D+01  0.93410875D+01  0.10304682D+02
  0.85588450D+01  0.45449842D+01  0.11726297D+01 -0.10736008D-12  0.10378882D-11
  0.14635307D-11  0.20932360D-11 -0.10599853D-13 -0.19196949D-11  0.24820408D-03
 -0.23994774D-02 -0.33835136D-02 -0.48393195D-02  0.24505633D-04  0.44381124D-02
 -0.35069248D-03  0.33902692D-02  0.47806335D-02  0.68375706D-02 -0.34624495D-04
 -0.62706971D-02  0.16279963D-10 -0.31412290D-01  0.45758930D-01 -0.12883720D-12
  0.35785794D-03 -0.56888579D-03 -0.46557231D-14  0.11623944D-04 -0.17397988D-04
 -0.13917783D-04 -0.77724341D-03  0.79116120D-03  0.25488671D-12  0.15415683D-12
  0.70050651D-03  0.59649570D-04  0.45226591D-03 -0.51191548D-03 -0.14353576D-12
 -0.96779021D-13 -0.37127931D-03  0.48273537D-05 -0.32076297D-05 -0.16197240D-05
  0.51422319D-14  0.90859986D-14 -0.42039661D-05  0.53756086D-14 -0.13671484D-04
 -0.33982213D-05  0.10093898D-13  0.19338511D-04  0.37514514D-04 -0.26220723D-13
  0.21675940D-04 -0.27319850D-04  0.45989515D-14  0.64494477D-14  0.78031752D-04
 -0.42718749D-04 -0.27090070D-13  0.10303785D-04  0.53880984D-04  0.77417269D-14
 -0.24439904D-03  0.74275263D-04 -0.46027937D-13  0.36039411D-03  0.67425892D-03
  0.11649699D-02  0.18885530D-02  0.28679490D-02  0.39861792D-02  0.47392617D-02
  0.42218990D-02  0.20966843D-02  0.33754844D-03  0.35613354D-05  0.20093802D-05
  0.67029561D-04  0.23358460D-03  0.84117597D-03  0.18542677D-02  0.26102105D-02
 -0.12451555D-03 -0.34159138D-02 -0.20198084D-02 -0.27706235D-06 -0.33559016D-05
 -0.69983791D-05 -0.20070133D-04 -0.10422140D-05  0.86552146D-04  0.22363412D-03
 -0.18220656D-03 -0.10160964D-03  0.10251915D-03  0.64047300D-04 -0.17874701D-08
 -0.23545163D-08 -0.25974001D-08 -0.21573441D-08 -0.11456096D-08 -0.29557326D-09
 -0.44726640D+01 -0.58915448D+01 -0.64992961D+01 -0.53981743D+01 -0.28665804D+01
 -0.73959271D+00 -0.63954572D+01 -0.84243132D+01 -0.92933362D+01 -0.77188434D+01
 -0.40989200D+01 -0.10575428D+01  0.79789828D-13 -0.77135671D-12 -0.10876935D-11
 -0.15556894D-11  0.78777922D-14  0.14267139D-11  0.22964582D-03 -0.22200680D-02
 -0.31305277D-02 -0.44774827D-02  0.22673342D-04  0.41062740D-02  0.31657380D-03
 -0.30604318D-02 -0.43155283D-02 -0.61723471D-02  0.31255897D-04  0.56606244D-02
 -0.11648638D-10 -0.28705194D-01 -0.41244585D-01  0.94408302D-13  0.34037367D-03
  0.54413545D-03  0.32190511D-14  0.10546121D-04  0.16897217D-04  0.11279085D-04
  0.73050740D-03 -0.74178649D-03  0.21612046D-12 -0.11254048D-12  0.66536790D-03
 -0.57882566D-04 -0.41837528D-03  0.47625785D-03 -0.10397773D-12  0.71637046D-13
 -0.32241238D-03 -0.44995578D-05 -0.46931082D-06  0.49688686D-05  0.55733330D-14
 -0.98327802D-14 -0.52868282D-05 -0.67900590D-14 -0.18080704D-04  0.21288758D-05
 -0.11281029D-13  0.24415004D-04 -0.36188559D-04  0.31651206D-13  0.29827108D-04
  0.29801932D-04  0.40253419D-17 -0.30105409D-14  0.72879611D-04  0.43277436D-04
  0.20560749D-13  0.11015355D-04 -0.49233638D-04 -0.11529126D-13 -0.22965419D-03
 -0.80598669D-04 -0.32529323D-13
MO    2     MO 0.0        OCC NO =    2.0000378  ORB. ENERGY =    0.000000
  0.55301385D-02  0.10307269D-01  0.17477423D-01  0.26450221D-01  0.32994566D-01
  0.28314246D-01  0.10842852D-01  0.85938173D-06  0.92206020D-05  0.33988875D-04
  0.99381477D-04  0.11975951D-03 -0.14426302D-03  0.54332738D-03  0.20137296D-03
  0.29948982D-03  0.34294323D-12  0.33253957D-12  0.22432923D-12 -0.10563903D-04
 -0.10243432D-04 -0.69101590D-05  0.15952749D-02  0.15468800D-02  0.10435161D-02
  0.10124835D-12 -0.38869544D-04  0.59380912D-03  0.23313089D-13 -0.33922558D-04
  0.50307708D-03 -0.67203540D-15 -0.10205103D-05  0.10499524D-04  0.13247603D-03
 -0.21774850D-03  0.85272468D-04  0.48250414D-14  0.41285903D-13 -0.11369519D-04
 -0.75430299D-04  0.24912929D-03 -0.17369899D-03 -0.51104803D-15 -0.20086118D-13
  0.11135818D-05  0.58783924D-04  0.22188133D-04 -0.80972057D-04 -0.22798620D-14
 -0.34560209D-14  0.45209515D-05 -0.24291829D-14 -0.60010408D-05  0.36002661D-04
  0.22003929D-13  0.14075345D-04 -0.41057457D-04 -0.14716381D-13  0.39277771D-05
 -0.66950525D-04 -0.31512891D-13  0.68673434D-15 -0.14492964D-06  0.34059789D-04
 -0.10014260D-13 -0.99395770D-05  0.33114570D-04  0.79540574D-14  0.10374366D-04
 -0.13529394D-03  0.51536097D-14 -0.38953629D-02 -0.72617412D-02 -0.12273332D-01
 -0.18449107D-01 -0.22661424D-01 -0.19125442D-01 -0.71916657D-02 -0.41873604D-05
 -0.31297925D-04 -0.11696749D-03 -0.32632109D-03 -0.43718029D-03  0.51622841D-03
 -0.10476050D-03 -0.18648397D-04  0.84943265D-04 -0.20971057D-12 -0.19661699D-12
 -0.14000301D-12  0.26583458D-04  0.24923681D-04  0.17747146D-04  0.98698270D-03
  0.92535902D-03  0.65891075D-03 -0.53905568D-13  0.10305234D-04  0.84055616D-03
 -0.62272681D-14  0.12033306D-06 -0.20640372D-03  0.10031386D-14 -0.50509720D-06
 -0.21768818D-04 -0.70067773D-04  0.68856272D-03 -0.61849495D-03  0.12497980D-13
  0.59194744D-13  0.12842376D-04  0.83425106D-04 -0.17187780D-03  0.88452695D-04
 -0.82470883D-15 -0.93853932D-14  0.44434685D-05 -0.49818933D-07  0.11549370D-03
 -0.11544389D-03  0.75164048D-15  0.23765442D-14  0.34563225D-05  0.64618177D-14
  0.10726588D-04  0.13981205D-03 -0.64210666D-14  0.98582273D-06 -0.18162646D-03
 -0.12964387D-13 -0.33165587D-04 -0.23780969D-03 -0.31937839D-14 -0.18328960D-14
 -0.11999574D-04 -0.70582317D-04  0.70006727D-14  0.16796647D-05  0.96631125D-04
 -0.15019848D-14  0.34319057D-04  0.11511583D-03  0.50333186D-14 -0.15331094D-02
 -0.28682841D-02 -0.49557587D-02 -0.80338672D-02 -0.12200198D-01 -0.16957128D-01
 -0.20160726D-01 -0.17959875D-01 -0.89192536D-02 -0.14359244D-02 -0.15149850D-04
 -0.75090691D-05 -0.25048997D-03 -0.87290741D-03 -0.31434809D-02 -0.69294125D-02
 -0.97543763D-02  0.46531554D-03  0.12765295D-01  0.75480393D-02  0.10418326D-06
  0.12619138D-05  0.26315881D-05  0.75469365D-05  0.39190190D-06 -0.32546050D-04
 -0.84092743D-04  0.68514809D-04  0.34462967D-03 -0.19542422D-03 -0.17005200D-03
  0.56789120D-09  0.74804556D-09  0.82521134D-09  0.68540263D-09  0.36396782D-09
  0.93905599D-10  0.38940345D+01  0.51293544D+01  0.56584808D+01  0.46998114D+01
  0.24957302D+01  0.64391145D+00 -0.67586736D+01 -0.89027542D+01 -0.98211315D+01
 -0.81572187D+01 -0.43317095D+01 -0.11176037D+01 -0.22682562D-13  0.21928041D-12
  0.30920827D-12  0.44224962D-12 -0.22394898D-14 -0.40558462D-12 -0.16557086D-03
  0.16006325D-02  0.22570589D-02  0.32281914D-02 -0.16347107D-04 -0.29605559D-02
  0.31645530D-03 -0.30592862D-02 -0.43139129D-02 -0.61700367D-02  0.31244197D-04
  0.56585055D-02  0.37615838D-11  0.25059000D-01 -0.43782764D-01 -0.25516756D-13
 -0.14824896D-03  0.19233138D-03 -0.15278119D-14 -0.10933862D-04  0.60396469D-05
  0.22378316D-04  0.39301556D-03 -0.41539388D-03  0.35273606D-13  0.31001408D-13
 -0.35764309D-03  0.80021092D-05 -0.25954746D-03  0.25154535D-03 -0.30592217D-13
 -0.19309166D-13  0.43999873D-03 -0.72203971D-06  0.38298241D-04 -0.37576201D-04
  0.70796473D-15  0.11338546D-15 -0.15323991D-04 -0.44270911D-15 -0.36264826D-04
  0.99844134D-05 -0.14309709D-14  0.56227777D-04  0.58320441D-05  0.27590982D-14
  0.52566702D-04 -0.35785284D-04  0.18947815D-14  0.22122377D-14 -0.45263105D-04
 -0.15577832D-04 -0.46185204D-14  0.14249311D-04 -0.37975823D-04 -0.20181927D-14
  0.12154000D-03  0.84709318D-04 -0.96047365D-14 -0.13632448D-02 -0.25504855D-02
 -0.44066732D-02 -0.71437350D-02 -0.10848447D-01 -0.15078321D-01 -0.17926968D-01
 -0.15969966D-01 -0.79310228D-02 -0.12768276D-02 -0.13471285D-04 -0.66873917D-05
 -0.22308019D-03 -0.77738981D-03 -0.27995066D-02 -0.61711638D-02 -0.86870069D-02
  0.41439854D-03  0.11368457D-01  0.67220976D-02  0.95502531D-07  0.11567689D-05
  0.24123195D-05  0.69181125D-05  0.35924795D-06 -0.29834256D-04 -0.77085988D-04
  0.62806035D-04  0.29598060D-03 -0.17991288D-03 -0.16252068D-03  0.41980961D-09
  0.55298746D-09  0.61003173D-09  0.50667912D-09  0.26906067D-09  0.69419060D-10
 -0.43451827D+01 -0.57236221D+01 -0.63140511D+01 -0.52443138D+01 -0.27848762D+01
 -0.71851261D+00 -0.74358958D+01 -0.97948143D+01 -0.10805213D+02 -0.89745758D+01
 -0.47657488D+01 -0.12295881D+01 -0.15943221D-13  0.15412880D-12  0.21733770D-12
  0.31085040D-12 -0.15741027D-14 -0.28507914D-12  0.18791929D-03 -0.18166827D-02
 -0.25617123D-02 -0.36639263D-02  0.18553607D-04  0.33601659D-02  0.34901804D-03
 -0.33740818D-02 -0.47578076D-02 -0.68049235D-02  0.34459175D-04  0.62407567D-02
  0.27894792D-11 -0.27958321D-01 -0.48146250D-01 -0.17877833D-13  0.18273493D-03
  0.24881842D-03 -0.12168170D-14  0.12114263D-04  0.80394544D-05  0.23416637D-04
  0.46293110D-03 -0.48634774D-03 -0.19112168D-13  0.21871935D-13  0.43044347D-03
  0.28908915D-05 -0.29673555D-03  0.29384466D-03  0.20178749D-13 -0.12232463D-13
 -0.47014288D-03 -0.98382147D-06  0.38296808D-04 -0.37312986D-04 -0.48289554D-15
 -0.66315105D-15  0.15902757D-04 -0.67748979D-15  0.34319821D-04  0.10120841D-04
 -0.28713527D-14 -0.53576012D-04  0.22493992D-05  0.49038220D-14 -0.49383450D-04
 -0.32611923D-04 -0.40121946D-14  0.18557846D-14  0.51730875D-04 -0.11813065D-04
 -0.25747195D-14 -0.13414312D-04 -0.42166965D-04 -0.29926343D-14 -0.14177831D-03
  0.77606159D-04  0.65638322D-14
MO    3     MO 0.0        OCC NO =    2.0000335  ORB. ENERGY =    0.000000
 -0.34579604D-11 -0.64450696D-11 -0.10928521D-10 -0.16539155D-10 -0.20631292D-10
 -0.17704718D-10 -0.67799664D-11 -0.37227892D-15 -0.39943086D-14 -0.14723773D-13
 -0.43051450D-13 -0.51879090D-13  0.62493862D-13 -0.30940012D-12 -0.89190576D-14
 -0.46100727D-14  0.35923631D-04  0.34833838D-04  0.23498701D-04  0.45240640D-13
  0.43868203D-13  0.29593231D-13  0.27342641D-12  0.26513164D-12  0.17885624D-12
  0.10541916D-04  0.20589954D-12  0.64362448D-13  0.43390064D-05  0.18759892D-12
  0.13952151D-13  0.19495993D-06  0.65921079D-14  0.30291277D-16  0.18635171D-13
 -0.30334995D-14 -0.15601671D-13  0.11672677D-03  0.69958705D-05  0.78552894D-13
  0.52812640D-15  0.90471577D-14 -0.95752841D-14  0.32875899D-04 -0.35392678D-05
  0.21617466D-13 -0.11475810D-14  0.40188252D-14 -0.28712442D-14 -0.15960303D-03
 -0.15017221D-05 -0.25372621D-13  0.55330691D-06  0.43792415D-13 -0.19613850D-14
  0.24314956D-05 -0.57996692D-13 -0.64080301D-14 -0.40914163D-05 -0.73380552D-13
  0.12292185D-13 -0.78680862D-03 -0.33110462D-06  0.28129780D-14  0.41974110D-14
 -0.13357433D-05  0.52901669D-13  0.36479685D-14  0.23290571D-05 -0.61340603D-13
 -0.16240201D-13  0.24412413D-03 -0.70629687D-13 -0.13166797D-12 -0.22253680D-12
 -0.33451432D-12 -0.41089092D-12 -0.34677744D-12 -0.13039737D-12 -0.37907570D-15
 -0.28333560D-14 -0.10588898D-13 -0.29541377D-13 -0.39577301D-13  0.46733413D-13
  0.51504481D-13 -0.77334088D-13 -0.20970397D-14 -0.46210068D-04 -0.43324876D-04
 -0.30849893D-04 -0.28388454D-12 -0.26615980D-12 -0.18952163D-12 -0.17505775D-12
 -0.16412777D-12 -0.11686875D-12 -0.81637508D-05 -0.37407604D-13  0.27618695D-13
 -0.49083579D-06  0.99261094D-14  0.20615929D-13 -0.64654673D-07  0.14376620D-14
  0.44601383D-15 -0.43717331D-14  0.10970565D-14  0.32746766D-14  0.12131069D-02
  0.11727417D-04 -0.76576213D-13  0.22651335D-13 -0.30081124D-13  0.74297893D-14
 -0.51015454D-04 -0.65401104D-05 -0.34547393D-13  0.17448238D-14 -0.29621534D-14
  0.12173296D-14  0.72316650D-04 -0.95001371D-07 -0.19393048D-13  0.16023793D-05
 -0.67622196D-13  0.30297433D-14 -0.91859429D-06 -0.92928298D-14 -0.25215376D-14
 -0.38885436D-05  0.21215942D-12 -0.65676923D-14 -0.35436464D-03 -0.54587903D-06
  0.68241380D-13 -0.82814363D-15  0.98302109D-06 -0.10181276D-13 -0.12030084D-14
  0.65461601D-06 -0.19454286D-12  0.36874393D-14  0.35910937D-03 -0.42717765D-10
 -0.79920379D-10 -0.13808469D-09 -0.22385150D-09 -0.33993999D-09 -0.47248460D-09
 -0.56174799D-09 -0.50042463D-09 -0.24852145D-09 -0.40009851D-10 -0.42212756D-12
 -0.59553051D-13 -0.19865901D-11 -0.69228688D-11 -0.24930371D-10 -0.54955901D-10
 -0.77360172D-10  0.36903323D-11  0.10123922D-09  0.59862116D-10 -0.15236366D-14
 -0.18454960D-13 -0.38485873D-13 -0.11037078D-12 -0.57314011D-14  0.47597235D-12
  0.12298211D-11 -0.10020004D-11  0.38029029D-11  0.18497481D-13  0.13270859D-13
  0.82338331D+01  0.10845884D+02  0.11964708D+02  0.99376269D+01  0.52771557D+01
  0.13615337D+01  0.77721874D-09  0.10237789D-08  0.11293884D-08  0.93804548D-09
  0.49812818D-09  0.12851967D-09 -0.20729050D-08 -0.27305008D-08 -0.30121699D-08
 -0.25018429D-08 -0.13285480D-08 -0.34277233D-09 -0.36037011D-03  0.34838263D-02
  0.49125588D-02  0.70262586D-02 -0.35579984D-04 -0.64437418D-02 -0.46085528D-13
  0.44552524D-12  0.62823709D-12  0.89854523D-12 -0.45501066D-14 -0.82405072D-12
  0.99207163D-13 -0.95907102D-12 -0.13523902D-11 -0.19342758D-11  0.97949004D-14
  0.17739134D-11  0.53842743D-01  0.46656891D-11 -0.13562277D-10 -0.42459009D-03
 -0.61306940D-13  0.17429802D-12 -0.15062017D-04 -0.25120973D-14  0.45103458D-14
  0.19546251D-14  0.21189524D-12 -0.21384986D-12  0.91046556D-03  0.51657921D-03
 -0.14178541D-12 -0.32242754D-13 -0.10090682D-12  0.13314958D-12 -0.48003423D-03
 -0.32613542D-03  0.12702296D-12 -0.19213647D-14  0.63026745D-15  0.12910972D-14
  0.21380544D-04  0.37057342D-04  0.59392015D-14  0.23449039D-04  0.84145674D-14
  0.16071979D-14  0.40905045D-04 -0.11800355D-13 -0.11490648D-13 -0.11125216D-03
 -0.13443347D-13  0.66690541D-14  0.74570106D-05  0.17887079D-04 -0.20302988D-13
  0.10063207D-13 -0.91162348D-04 -0.67830593D-14 -0.17364455D-13  0.37501111D-04
  0.67692024D-13 -0.12825166D-13 -0.15102906D-03  0.43551404D-10  0.81480030D-10
  0.14077942D-09  0.22821998D-09  0.34657394D-09  0.48170517D-09  0.57271053D-09
  0.51019044D-09  0.25337136D-09  0.40790646D-10  0.43036541D-12  0.57399510D-13
  0.19147516D-11  0.66725259D-11  0.24028846D-10  0.52968601D-10  0.74562695D-10
 -0.35568835D-11 -0.97578235D-10 -0.57697399D-10  0.12068442D-14  0.14617830D-13
  0.30483944D-13  0.87422645D-13  0.45397362D-14 -0.37700884D-12 -0.97411845D-12
  0.79366586D-12 -0.37726110D-11  0.84806472D-13 -0.80603831D-14 -0.81944492D+01
 -0.10794006D+02 -0.11907479D+02 -0.98900935D+01 -0.52519141D+01 -0.13550213D+01
  0.13293302D-08  0.17510389D-08  0.19316700D-08  0.16044032D-08  0.85198260D-09
  0.21981596D-09  0.16810438D-08  0.22143280D-08  0.24427504D-08  0.20288954D-08
  0.10773998D-08  0.27797477D-09  0.35824551D-03 -0.34632871D-02 -0.48835963D-02
 -0.69848346D-02  0.35370219D-04  0.64057521D-02 -0.63852934D-13  0.61728908D-12
  0.87044203D-12  0.12449624D-11 -0.63043142D-14 -0.11417479D-11 -0.84660026D-13
  0.81843866D-12  0.11540839D-11  0.16506453D-11 -0.83586356D-14 -0.15137974D-11
 -0.53563317D-01  0.88595589D-11  0.10645861D-10  0.42386941D-03 -0.84810952D-13
 -0.14451001D-12  0.15201480D-04 -0.24659963D-14 -0.45240449D-14  0.34726379D-13
 -0.23638347D-12  0.20165709D-12  0.90734740D-03 -0.51074005D-03 -0.52817479D-13
 -0.47763068D-15  0.12938171D-12 -0.12890408D-12 -0.47093739D-03  0.31782909D-03
  0.43441152D-13  0.93900201D-15 -0.44659038D-15 -0.49241163D-15  0.21500560D-04
 -0.36911044D-04  0.30088072D-14 -0.22562313D-04  0.39336158D-14 -0.10570188D-14
 -0.43309867D-04 -0.27444830D-14  0.69813482D-14  0.11099681D-03 -0.90563643D-14
 -0.38102916D-14  0.99165458D-05 -0.17489953D-04 -0.19995822D-13 -0.11827727D-13
  0.90519375D-04  0.16182751D-14  0.98849406D-14 -0.38049517D-04  0.58369192D-13
  0.25598239D-13 -0.14770966D-03
MO    4     MO 0.0        OCC NO =    2.0000299  ORB. ENERGY =    0.000000
  0.17533425D-10  0.32679421D-10  0.55412551D-10  0.83861004D-10  0.10460999D-09
  0.89770937D-10  0.34377500D-10  0.23738180D-14  0.25469509D-13  0.93885407D-13
  0.27451542D-12  0.33080443D-12 -0.39848900D-12  0.15608595D-11  0.12556813D-13
  0.25464640D-13 -0.52113574D-02 -0.50532637D-02 -0.34089018D-02 -0.82216790D-13
 -0.79722630D-13 -0.53780415D-13 -0.94555598D-12 -0.91687123D-12 -0.61851592D-12
 -0.14852597D-02 -0.50951158D-13 -0.13561574D-12 -0.31317788D-03 -0.32941624D-13
 -0.35273562D-13  0.14393297D-04 -0.29990635D-14 -0.13826868D-14 -0.52125495D-13
 -0.27512772D-13  0.79638267D-13  0.15791984D-05 -0.39076508D-03 -0.47475644D-14
 -0.19006123D-13  0.49167518D-14  0.14089371D-13 -0.72239881D-06  0.17708099D-03
 -0.74385572D-14 -0.21188069D-14  0.69226569D-15  0.14265412D-14  0.77606583D-07
  0.28501360D-04  0.20376876D-14  0.62619147D-04 -0.89934435D-14  0.22277722D-13
 -0.33384525D-03  0.13428093D-13 -0.35961134D-13  0.14598781D-03  0.13552238D-13
 -0.30872034D-13  0.94577037D-06 -0.26418098D-04 -0.70581004D-15 -0.61020803D-15
  0.13945087D-03 -0.10428041D-13  0.89389609D-14 -0.60196579D-04  0.12545471D-13
 -0.71083368D-14  0.11868818D-05 -0.15961603D-10 -0.29755643D-10 -0.50291091D-10
 -0.75596889D-10 -0.92857238D-10 -0.78368233D-10 -0.29468502D-10 -0.20293647D-14
 -0.15168244D-13 -0.56687191D-13 -0.15814843D-12 -0.21187530D-12  0.25018522D-12
 -0.12845453D-11  0.32878775D-13  0.18005255D-13  0.37330235D-02  0.34999468D-02
  0.24921706D-02  0.61393476D-13  0.57560286D-13  0.40986353D-13  0.16416116D-12
  0.15391152D-12  0.10959417D-12  0.84912885D-03  0.29046446D-14 -0.47225801D-13
  0.88085397D-04 -0.96298011D-14 -0.26087260D-13 -0.16001467D-04  0.98413822D-15
 -0.19285115D-14  0.43543221D-13  0.51377656D-13 -0.94920877D-13 -0.47146138D-05
 -0.10394180D-02  0.11456649D-13 -0.75434907D-14  0.87506030D-14 -0.12071123D-14
  0.38300735D-05  0.94772783D-04  0.11247646D-13 -0.23775878D-15  0.58798201D-14
 -0.56420613D-14  0.16186695D-06 -0.41659936D-04  0.67403620D-14 -0.88113674D-04
  0.13367179D-13 -0.19008499D-13  0.13404865D-03 -0.31125047D-15  0.36081047D-13