 cl2co-wavefunction
GAUSSIAN            192 MOL ORBITALS    372 PRIMITIVES        4 NUCLEI
  O    1    (CENTRE  1)   0.00000000  0.00000000  1.29143317  CHARGE =  8.0
  C    2    (CENTRE  2)   0.00000000  0.00000000 -0.93482295  CHARGE =  6.0
  Cl   3    (CENTRE  3)   0.00000000 -2.73418805 -2.75863166  CHARGE = 17.0
  Cl   4    (CENTRE  4)   0.00000000  2.73418805 -2.77752892  CHARGE = 17.0
CENTRE ASSIGNMENTS    1  1  1  1  1  1  1  1  1  1  1  1  1  1  1  1  1  1  1  1
CENTRE ASSIGNMENTS    1  1  1  1  1  1  1  1  1  1  1  1  1  1  1  1  1  1  1  1
CENTRE ASSIGNMENTS    1  1  1  1  1  1  1  1  1  1  1  1  1  1  1  1  1  1  1  1
CENTRE ASSIGNMENTS    1  1  1  1  1  1  1  1  1  1  1  1  2  2  2  2  2  2  2  2
CENTRE ASSIGNMENTS    2  2  2  2  2  2  2  2  2  2  2  2  2  2  2  2  2  2  2  2
CENTRE ASSIGNMENTS    2  2  2  2  2  2  2  2  2  2  2  2  2  2  2  2  2  2  2  2
CENTRE ASSIGNMENTS    2  2  2  2  2  2  2  2  2  2  2  2  2  2  2  2  2  2  2  2
CENTRE ASSIGNMENTS    2  2  2  2  3  3  3  3  3  3  3  3  3  3  3  3  3  3  3  3
CENTRE ASSIGNMENTS    3  3  3  3  3  3  3  3  3  3  3  3  3  3  3  3  3  3  3  3
CENTRE ASSIGNMENTS    3  3  3  3  3  3  3  3  3  3  3  3  3  3  3  3  3  3  3  3
CENTRE ASSIGNMENTS    3  3  3  3  3  3  3  3  3  3  3  3  3  3  3  3  3  3  3  3
CENTRE ASSIGNMENTS    3  3  3  3  3  3  3  3  3  3  3  3  3  3  3  3  3  3  3  3
CENTRE ASSIGNMENTS    3  3  3  3  3  3  3  3  3  3  3  3  3  3  3  3  3  3  4  4
CENTRE ASSIGNMENTS    4  4  4  4  4  4  4  4  4  4  4  4  4  4  4  4  4  4  4  4
CENTRE ASSIGNMENTS    4  4  4  4  4  4  4  4  4  4  4  4  4  4  4  4  4  4  4  4
CENTRE ASSIGNMENTS    4  4  4  4  4  4  4  4  4  4  4  4  4  4  4  4  4  4  4  4
CENTRE ASSIGNMENTS    4  4  4  4  4  4  4  4  4  4  4  4  4  4  4  4  4  4  4  4
CENTRE ASSIGNMENTS    4  4  4  4  4  4  4  4  4  4  4  4  4  4  4  4  4  4  4  4
CENTRE ASSIGNMENTS    4  4  4  4  4  4  4  4  4  4  4  4
TYPE ASSIGNMENTS      1  1  1  1  1  1  1  1  1  1  1  1  1  1  1  1  2  2  2  3
TYPE ASSIGNMENTS      3  3  4  4  4  2  3  4  2  3  4  2  3  4  5  6  7  8  9 10
TYPE ASSIGNMENTS      5  6  7  8  9 10  5  6  7  8  9 10 11 12 13 17 14 15 18 19
TYPE ASSIGNMENTS     16 20 11 12 13 17 14 15 18 19 16 20  1  1  1  1  1  1  1  1
TYPE ASSIGNMENTS      1  1  1  1  1  1  1  1  2  2  2  3  3  3  4  4  4  2  3  4
TYPE ASSIGNMENTS      2  3  4  2  3  4  5  6  7  8  9 10  5  6  7  8  9 10  5  6
TYPE ASSIGNMENTS      7  8  9 10 11 12 13 17 14 15 18 19 16 20 11 12 13 17 14 15
TYPE ASSIGNMENTS     18 19 16 20  1  1  1  1  1  1  1  1  1  1  1  1  1  1  1  1
TYPE ASSIGNMENTS      1  1  1  1  1  1  1  1  1  1  1  1  1  1  1  2  2  2  2  2
TYPE ASSIGNMENTS      2  3  3  3  3  3  3  4  4  4  4  4  4  2  2  2  2  2  2  3
TYPE ASSIGNMENTS      3  3  3  3  3  4  4  4  4  4  4  2  3  4  2  3  4  2  3  4
TYPE ASSIGNMENTS      5  6  7  8  9 10  5  6  7  8  9 10  5  6  7  8  9 10 11 12
TYPE ASSIGNMENTS     13 17 14 15 18 19 16 20 11 12 13 17 14 15 18 19 16 20  1  1
TYPE ASSIGNMENTS      1  1  1  1  1  1  1  1  1  1  1  1  1  1  1  1  1  1  1  1
TYPE ASSIGNMENTS      1  1  1  1  1  1  1  1  1  2  2  2  2  2  2  3  3  3  3  3
TYPE ASSIGNMENTS      3  4  4  4  4  4  4  2  2  2  2  2  2  3  3  3  3  3  3  4
TYPE ASSIGNMENTS      4  4  4  4  4  2  3  4  2  3  4  2  3  4  5  6  7  8  9 10
TYPE ASSIGNMENTS      5  6  7  8  9 10  5  6  7  8  9 10 11 12 13 17 14 15 18 19
TYPE ASSIGNMENTS     16 20 11 12 13 17 14 15 18 19 16 20
EXPONENTS  0.1533000D+05 0.2299000D+04 0.5224000D+03 0.1473000D+03 0.4755000D+02
EXPONENTS  0.1676000D+02 0.6207000D+01 0.5224000D+03 0.1473000D+03 0.4755000D+02
EXPONENTS  0.1676000D+02 0.6207000D+01 0.6882000D+00 0.1752000D+01 0.2384000D+00
EXPONENTS  0.7376000D-01 0.3446000D+02 0.7749000D+01 0.2280000D+01 0.3446000D+02
EXPONENTS  0.7749000D+01 0.2280000D+01 0.3446000D+02 0.7749000D+01 0.2280000D+01
EXPONENTS  0.7156000D+00 0.7156000D+00 0.7156000D+00 0.2140000D+00 0.2140000D+00
EXPONENTS  0.2140000D+00 0.5974000D-01 0.5974000D-01 0.5974000D-01 0.2314000D+01
EXPONENTS  0.2314000D+01 0.2314000D+01 0.2314000D+01 0.2314000D+01 0.2314000D+01
EXPONENTS  0.6450000D+00 0.6450000D+00 0.6450000D+00 0.6450000D+00 0.6450000D+00
EXPONENTS  0.6450000D+00 0.2140000D+00 0.2140000D+00 0.2140000D+00 0.2140000D+00
EXPONENTS  0.2140000D+00 0.2140000D+00 0.1428000D+01 0.1428000D+01 0.1428000D+01
EXPONENTS  0.1428000D+01 0.1428000D+01 0.1428000D+01 0.1428000D+01 0.1428000D+01
EXPONENTS  0.1428000D+01 0.1428000D+01 0.5000000D+00 0.5000000D+00 0.5000000D+00
EXPONENTS  0.5000000D+00 0.5000000D+00 0.5000000D+00 0.5000000D+00 0.5000000D+00
EXPONENTS  0.5000000D+00 0.5000000D+00 0.8236000D+04 0.1235000D+04 0.2808000D+03
EXPONENTS  0.7927000D+02 0.2559000D+02 0.8997000D+01 0.3319000D+01 0.2808000D+03
EXPONENTS  0.7927000D+02 0.2559000D+02 0.8997000D+01 0.3319000D+01 0.3643000D+00
EXPONENTS  0.9059000D+00 0.1285000D+00 0.4402000D-01 0.1871000D+02 0.4133000D+01
EXPONENTS  0.1200000D+01 0.1871000D+02 0.4133000D+01 0.1200000D+01 0.1871000D+02
EXPONENTS  0.4133000D+01 0.1200000D+01 0.3827000D+00 0.3827000D+00 0.3827000D+00
EXPONENTS  0.1209000D+00 0.1209000D+00 0.1209000D+00 0.3569000D-01 0.3569000D-01
EXPONENTS  0.3569000D-01 0.1097000D+01 0.1097000D+01 0.1097000D+01 0.1097000D+01
EXPONENTS  0.1097000D+01 0.1097000D+01 0.3180000D+00 0.3180000D+00 0.3180000D+00
EXPONENTS  0.3180000D+00 0.3180000D+00 0.3180000D+00 0.1000000D+00 0.1000000D+00
EXPONENTS  0.1000000D+00 0.1000000D+00 0.1000000D+00 0.1000000D+00 0.7610000D+00
EXPONENTS  0.7610000D+00 0.7610000D+00 0.7610000D+00 0.7610000D+00 0.7610000D+00
EXPONENTS  0.7610000D+00 0.7610000D+00 0.7610000D+00 0.7610000D+00 0.2680000D+00
EXPONENTS  0.2680000D+00 0.2680000D+00 0.2680000D+00 0.2680000D+00 0.2680000D+00
EXPONENTS  0.2680000D+00 0.2680000D+00 0.2680000D+00 0.2680000D+00 0.4561000D+06
EXPONENTS  0.6833000D+05 0.1555000D+05 0.4405000D+04 0.1439000D+04 0.5204000D+03
EXPONENTS  0.2031000D+03 0.8396000D+02 0.3620000D+02 0.1583000D+02 0.6334000D+01
EXPONENTS  0.4405000D+04 0.1439000D+04 0.5204000D+03 0.2031000D+03 0.8396000D+02
EXPONENTS  0.3620000D+02 0.1583000D+02 0.6334000D+01 0.2694000D+01 0.1439000D+04
EXPONENTS  0.2031000D+03 0.8396000D+02 0.3620000D+02 0.1583000D+02 0.6334000D+01
EXPONENTS  0.2694000D+01 0.4313000D+00 0.9768000D+00 0.1625000D+00 0.5910000D-01
EXPONENTS  0.6633000D+03 0.1568000D+03 0.4998000D+02 0.1842000D+02 0.7240000D+01
EXPONENTS  0.2922000D+01 0.6633000D+03 0.1568000D+03 0.4998000D+02 0.1842000D+02
EXPONENTS  0.7240000D+01 0.2922000D+01 0.6633000D+03 0.1568000D+03 0.4998000D+02
EXPONENTS  0.1842000D+02 0.7240000D+01 0.2922000D+01 0.1568000D+03 0.4998000D+02
EXPONENTS  0.1842000D+02 0.7240000D+01 0.2922000D+01 0.3818000D+00 0.1568000D+03
EXPONENTS  0.4998000D+02 0.1842000D+02 0.7240000D+01 0.2922000D+01 0.3818000D+00
EXPONENTS  0.1568000D+03 0.4998000D+02 0.1842000D+02 0.7240000D+01 0.2922000D+01
EXPONENTS  0.3818000D+00 0.1022000D+01 0.1022000D+01 0.1022000D+01 0.1301000D+00
EXPONENTS  0.1301000D+00 0.1301000D+00 0.4190000D-01 0.4190000D-01 0.4190000D-01
EXPONENTS  0.1046000D+01 0.1046000D+01 0.1046000D+01 0.1046000D+01 0.1046000D+01
EXPONENTS  0.1046000D+01 0.3440000D+00 0.3440000D+00 0.3440000D+00 0.3440000D+00
EXPONENTS  0.3440000D+00 0.3440000D+00 0.1350000D+00 0.1350000D+00 0.1350000D+00
EXPONENTS  0.1350000D+00 0.1350000D+00 0.1350000D+00 0.7060000D+00 0.7060000D+00
EXPONENTS  0.7060000D+00 0.7060000D+00 0.7060000D+00 0.7060000D+00 0.7060000D+00
EXPONENTS  0.7060000D+00 0.7060000D+00 0.7060000D+00 0.3120000D+00 0.3120000D+00
EXPONENTS  0.3120000D+00 0.3120000D+00 0.3120000D+00 0.3120000D+00 0.3120000D+00
EXPONENTS  0.3120000D+00 0.3120000D+00 0.3120000D+00 0.4561000D+06 0.6833000D+05
EXPONENTS  0.1555000D+05 0.4405000D+04 0.1439000D+04 0.5204000D+03 0.2031000D+03
EXPONENTS  0.8396000D+02 0.3620000D+02 0.1583000D+02 0.6334000D+01 0.4405000D+04
EXPONENTS  0.1439000D+04 0.5204000D+03 0.2031000D+03 0.8396000D+02 0.3620000D+02
EXPONENTS  0.1583000D+02 0.6334000D+01 0.2694000D+01 0.1439000D+04 0.2031000D+03
EXPONENTS  0.8396000D+02 0.3620000D+02 0.1583000D+02 0.6334000D+01 0.2694000D+01
EXPONENTS  0.4313000D+00 0.9768000D+00 0.1625000D+00 0.5910000D-01 0.6633000D+03
EXPONENTS  0.1568000D+03 0.4998000D+02 0.1842000D+02 0.7240000D+01 0.2922000D+01
EXPONENTS  0.6633000D+03 0.1568000D+03 0.4998000D+02 0.1842000D+02 0.7240000D+01
EXPONENTS  0.2922000D+01 0.6633000D+03 0.1568000D+03 0.4998000D+02 0.1842000D+02
EXPONENTS  0.7240000D+01 0.2922000D+01 0.1568000D+03 0.4998000D+02 0.1842000D+02
EXPONENTS  0.7240000D+01 0.2922000D+01 0.3818000D+00 0.1568000D+03 0.4998000D+02
EXPONENTS  0.1842000D+02 0.7240000D+01 0.2922000D+01 0.3818000D+00 0.1568000D+03
EXPONENTS  0.4998000D+02 0.1842000D+02 0.7240000D+01 0.2922000D+01 0.3818000D+00
EXPONENTS  0.1022000D+01 0.1022000D+01 0.1022000D+01 0.1301000D+00 0.1301000D+00
EXPONENTS  0.1301000D+00 0.4190000D-01 0.4190000D-01 0.4190000D-01 0.1046000D+01
EXPONENTS  0.1046000D+01 0.1046000D+01 0.1046000D+01 0.1046000D+01 0.1046000D+01
EXPONENTS  0.3440000D+00 0.3440000D+00 0.3440000D+00 0.3440000D+00 0.3440000D+00
EXPONENTS  0.3440000D+00 0.1350000D+00 0.1350000D+00 0.1350000D+00 0.1350000D+00
EXPONENTS  0.1350000D+00 0.1350000D+00 0.7060000D+00 0.7060000D+00 0.7060000D+00
EXPONENTS  0.7060000D+00 0.7060000D+00 0.7060000D+00 0.7060000D+00 0.7060000D+00
EXPONENTS  0.7060000D+00 0.7060000D+00 0.3120000D+00 0.3120000D+00 0.3120000D+00
EXPONENTS  0.3120000D+00 0.3120000D+00 0.3120000D+00 0.3120000D+00 0.3120000D+00
EXPONENTS  0.3120000D+00 0.3120000D+00
MO    1     MO 0.0        OCC NO =    2.0000388  ORB. ENERGY =    0.000000
 -0.25804954D-03 -0.48096191D-03 -0.81553850D-03 -0.12342308D-02 -0.15396056D-02
 -0.13212107D-02 -0.50595351D-03 -0.81182750D-07 -0.87103763D-06 -0.32108087D-05
 -0.93882163D-05 -0.11313257D-04  0.13628017D-04 -0.22974708D-04  0.22024230D-05
 -0.97408161D-05 -0.23422130D-12 -0.22711588D-12 -0.15321103D-12 -0.88263956D-03
 -0.85586347D-03 -0.57736044D-03 -0.65965729D-04 -0.63964567D-04 -0.43150119D-04
 -0.65175402D-13 -0.94737291D-03 -0.25617445D-04 -0.77166340D-14 -0.76995683D-03
 -0.21690846D-04  0.21668850D-14 -0.20305281D-04 -0.49552644D-06 -0.87126034D-05
  0.15149461D-04 -0.64368580D-05 -0.13581633D-13 -0.18735905D-13 -0.19962423D-03
  0.67946702D-05 -0.13897476D-04  0.71028063D-05 -0.28588578D-14  0.31425121D-14
 -0.75507367D-04 -0.18200004D-05 -0.21229885D-05  0.39429889D-05  0.99136531D-14
 -0.16701166D-14  0.11511207D-03  0.24031871D-14 -0.14957571D-03  0.15132415D-05
 -0.99291447D-14  0.21965357D-03 -0.29152215D-05  0.27195834D-14  0.22907355D-03
 -0.16245031D-05  0.66467338D-13 -0.15236679D-14 -0.10088384D-04 -0.25232913D-05
  0.36745651D-14 -0.20152673D-03 -0.18088228D-05  0.89643863D-15  0.23179188D-03
  0.93786968D-05 -0.14376513D-13  0.16447532D-03  0.30661514D-03  0.51822136D-03
  0.77898335D-03  0.95684153D-03  0.80754049D-03  0.30365631D-03  0.17428398D-06
  0.13026648D-05  0.48683556D-05  0.13581954D-04  0.18196074D-04 -0.21486171D-04
  0.30939548D-05  0.12647560D-05 -0.30645005D-05  0.17265048D-12  0.16187080D-12
  0.11526165D-12  0.11234530D-02  0.10533086D-02  0.75001844D-03 -0.43818588D-04
 -0.41082712D-04 -0.29253338D-04  0.35285774D-13  0.14572196D-03 -0.35181241D-04
  0.60265348D-14  0.69597123D-04  0.69707136D-05 -0.13365712D-14 -0.84856712D-05
  0.81185088D-06  0.20276077D-05 -0.31254449D-04  0.29226841D-04 -0.70046239D-13
 -0.47050762D-13  0.19083265D-03 -0.38846261D-05  0.13329064D-04 -0.94444384D-05
  0.29838762D-15 -0.33913367D-14  0.68154533D-04 -0.79523137D-08 -0.39414522D-05
  0.39494045D-05 -0.48976217D-14 -0.40726235D-14  0.55399427D-04 -0.35164898D-14
  0.25787624D-03 -0.39971784D-05  0.80288316D-14  0.36049425D-04  0.65521082D-05
  0.25206378D-14 -0.80967814D-03  0.54394269D-05  0.27417165D-13  0.98864079D-15
 -0.26314084D-03  0.80499555D-06 -0.35598221D-14  0.28638680D-04 -0.41298463D-05
  0.59389974D-15  0.76078383D-03  0.17148597D-05 -0.20833047D-13 -0.26423724D-03
 -0.49435969D-03 -0.85414389D-03 -0.13846676D-02 -0.21027506D-02 -0.29226255D-02
 -0.34747778D-02 -0.30954528D-02 -0.15372673D-02 -0.24748703D-03 -0.26111344D-05
 -0.15345896D-05 -0.51191340D-04 -0.17839157D-03 -0.64241693D-03 -0.14161282D-02
 -0.19934514D-02  0.95094130D-04  0.26087774D-02  0.15425537D-02  0.26714892D-06
  0.32358259D-05  0.67479737D-05  0.19352014D-04  0.10049231D-05 -0.83455268D-04
 -0.21563239D-03  0.17568712D-03  0.85574436D-04 -0.10178186D-03 -0.49940694D-04
 -0.88953120D-09 -0.11717207D-08 -0.12925913D-08 -0.10735983D-08 -0.57011049D-09
 -0.14709149D-09 -0.47638936D+01 -0.62751623D+01 -0.69224863D+01 -0.57496669D+01
 -0.30532327D+01 -0.78774999D+00  0.70643650D+01  0.93054213D+01  0.10265336D+02
  0.85261656D+01  0.45276305D+01  0.11681523D+01  0.37249878D-13 -0.36010786D-12
 -0.50778967D-12 -0.72627355D-12  0.36777470D-14  0.66606135D-12  0.24201672D-03
 -0.23396620D-02 -0.32991676D-02 -0.47186824D-02  0.23894743D-04  0.43274768D-02
 -0.34968150D-03  0.33804957D-02  0.47668519D-02  0.68178592D-02 -0.34524679D-04
 -0.62526199D-02 -0.58454155D-11 -0.30581344D-01  0.45592258D-01  0.39090535D-13
  0.34804068D-03 -0.57124164D-03  0.20998677D-14  0.11223197D-04 -0.17374221D-04
 -0.15972898D-04 -0.76275628D-03  0.77872918D-03 -0.76017516D-13 -0.49796976D-13
  0.72132572D-03  0.59651092D-04  0.44848672D-03 -0.50813781D-03  0.47080590D-13
  0.29381641D-13 -0.38880364D-03  0.46719829D-05 -0.26343841D-05 -0.20375988D-05
 -0.34897750D-14 -0.25949369D-14 -0.49019237D-05 -0.13422739D-14 -0.11708979D-04
 -0.37368256D-05  0.90123707D-15  0.16921264D-04  0.38093412D-04  0.31255846D-14
  0.18205674D-04 -0.26882935D-04 -0.12655750D-15 -0.20025302D-14  0.78400574D-04
 -0.40585495D-04  0.68816210D-14  0.11091435D-04  0.53457568D-04 -0.87403055D-15
 -0.24629316D-03  0.68298915D-04  0.12577587D-13  0.37347847D-03  0.69873836D-03
  0.12072649D-02  0.19571183D-02  0.29720719D-02  0.41309003D-02  0.49113239D-02
  0.43751780D-02  0.21728059D-02  0.34980337D-03  0.36906322D-05  0.20645721D-05
  0.68870668D-04  0.24000049D-03  0.86428062D-03  0.19051991D-02  0.26819054D-02
 -0.12793563D-03 -0.35097389D-02 -0.20752867D-02 -0.26832570D-06 -0.32500795D-05
 -0.67776982D-05 -0.19437258D-04 -0.10093498D-05  0.83822885D-04  0.21658224D-03
 -0.17646101D-03 -0.10646995D-03  0.10891269D-03  0.61223864D-04  0.14459279D-09
  0.19046253D-09  0.21010998D-09  0.17451279D-09  0.92671134D-10  0.23909637D-10
 -0.45068231D+01 -0.59365403D+01 -0.65489333D+01 -0.54394019D+01 -0.28884733D+01
 -0.74524122D+00 -0.64983706D+01 -0.85598743D+01 -0.94428813D+01 -0.78430523D+01
 -0.41648784D+01 -0.10745604D+01 -0.79221291D-14  0.76586047D-13  0.10799432D-12
  0.15446045D-12 -0.78216596D-15 -0.14165480D-12  0.23099914D-03 -0.22331510D-02
 -0.31489761D-02 -0.45038688D-02  0.22806958D-04  0.41304725D-02  0.32198985D-03
 -0.31127907D-02 -0.43893598D-02 -0.62779457D-02  0.31790633D-04  0.57574683D-02
  0.90772652D-12 -0.28930168D-01 -0.41922773D-01 -0.12836307D-13  0.34035930D-03
  0.54869136D-03  0.26406960D-15  0.10515404D-04  0.16790706D-04  0.13817492D-04
  0.73309133D-03 -0.74690882D-03 -0.37318236D-13  0.15086635D-13  0.67027946D-03
 -0.58077032D-04 -0.42669003D-03  0.48476706D-03  0.10309177D-13 -0.90269778D-14
 -0.33758488D-03 -0.44227067D-05 -0.21235910D-06  0.46350658D-05  0.19423085D-15
  0.23645613D-14 -0.56575804D-05  0.14446064D-14 -0.14667592D-04  0.23947480D-05
  0.71547188D-14  0.19979839D-04 -0.37180635D-04 -0.11488538D-13  0.24022938D-04
  0.29996391D-04 -0.17129673D-14 -0.19349477D-15  0.73998937D-04  0.42829697D-04
 -0.38585509D-14  0.11414559D-04 -0.50059136D-04  0.44390352D-14 -0.23341137D-03
 -0.78429954D-04  0.42552649D-14
MO    2     MO 0.0        OCC NO =    2.0000377  ORB. ENERGY =    0.000000
  0.55737241D-02  0.10388505D-01  0.17615171D-01  0.26658688D-01  0.33254611D-01
  0.28537404D-01  0.10928310D-01  0.89882168D-06  0.96437668D-05  0.35548740D-04
  0.10394243D-03  0.12525568D-03 -0.15088374D-03  0.54560047D-03  0.19433408D-03
  0.29944499D-03  0.47328552D-12  0.45892776D-12  0.30958995D-12 -0.91901418D-05
 -0.89113462D-05 -0.60115415D-05  0.15977002D-02  0.15492318D-02  0.10451026D-02
  0.12957825D-12 -0.34132531D-04  0.58894843D-03  0.24181718D-13 -0.23325223D-04
  0.49997464D-03 -0.21892474D-14 -0.34384792D-06  0.10665973D-04  0.13118225D-03
 -0.21976739D-03  0.88585142D-04 -0.39886253D-14  0.39835871D-13 -0.54790753D-05
 -0.77549382D-04  0.24963681D-03 -0.17208743D-03 -0.24472810D-14 -0.85135966D-14
  0.29060128D-05  0.58019721D-04  0.22793042D-04 -0.80812763D-04  0.47095078D-14
 -0.77596293D-15  0.33355485D-05 -0.55560368D-14 -0.38167479D-05  0.31687095D-04
  0.35344578D-13  0.13069915D-04 -0.32849700D-04 -0.18676467D-13 -0.16196711D-05
 -0.62211584D-04  0.22589996D-13  0.30128373D-14 -0.24766384D-06  0.35546536D-04
 -0.11966275D-13 -0.79117784D-05  0.31619181D-04  0.29277635D-14  0.86547699D-05
 -0.13825879D-03 -0.60406699D-14 -0.39518874D-02 -0.73671142D-02 -0.12451427D-01
 -0.18716817D-01 -0.22990257D-01 -0.19402966D-01 -0.72960218D-02 -0.41857095D-05
 -0.31285585D-04 -0.11692137D-03 -0.32619243D-03 -0.43700792D-03  0.51602487D-03
 -0.10728344D-03 -0.16758719D-04  0.84702662D-04 -0.36982168D-12 -0.34673133D-12
 -0.24689336D-12  0.21988805D-04  0.20615903D-04  0.14679751D-04  0.98046690D-03
  0.91925004D-03  0.65456079D-03 -0.79334117D-13  0.95622939D-05  0.83154244D-03
 -0.75504143D-14  0.72386693D-06 -0.19864427D-03  0.18883176D-14 -0.52240134D-06
 -0.21887715D-04 -0.67578244D-04  0.68522118D-03 -0.61764294D-03 -0.25391902D-13
  0.96977760D-13  0.18880408D-05  0.82291560D-04 -0.16926275D-03  0.86971187D-04
  0.30143994D-15 -0.37341419D-14  0.47649331D-05 -0.12762679D-06  0.11592928D-03
 -0.11580166D-03 -0.27370214D-14  0.48115638D-14  0.10806583D-05  0.74875175D-14
  0.76790073D-05  0.13567609D-03 -0.13676881D-13  0.42667502D-07 -0.17445284D-03
 -0.87856716D-14 -0.23079690D-04 -0.23257543D-03  0.76715748D-14 -0.31612266D-14
 -0.88807328D-05 -0.67507450D-04  0.10427997D-13  0.13767543D-05  0.94415167D-04
 -0.94431677D-15  0.25265444D-04  0.10810718D-03 -0.80334799D-14 -0.14837908D-02
 -0.27760142D-02 -0.47963369D-02 -0.77754256D-02 -0.11807730D-01 -0.16411634D-01
 -0.19512175D-01 -0.17382123D-01 -0.86323300D-02 -0.13897321D-02 -0.14662495D-04
 -0.72638841D-05 -0.24231101D-03 -0.84440536D-03 -0.30408404D-02 -0.67031543D-02
 -0.94358779D-02  0.45012213D-03  0.12348485D-01  0.73015818D-02  0.94777391D-07
  0.11479857D-05  0.23940031D-05  0.68655840D-05  0.35652022D-06 -0.29607728D-04
 -0.76500682D-04  0.62329155D-04  0.32900417D-03 -0.19189157D-03 -0.16888979D-03
  0.61777364D-09  0.81375241D-09  0.89769628D-09  0.74560705D-09  0.39593803D-09
  0.10215408D-09  0.38720873D+01  0.51004448D+01  0.56265890D+01  0.46733227D+01
  0.24816640D+01  0.64028229D+00 -0.68912595D+01 -0.90774008D+01 -0.10013794D+02
 -0.83172400D+01 -0.44166852D+01 -0.11395279D+01 -0.23434041D-13  0.22654523D-12
  0.31945242D-12  0.45690147D-12 -0.23136847D-14 -0.41902174D-12 -0.16460297D-03
  0.15912756D-02  0.22438647D-02  0.32093200D-02 -0.16251545D-04 -0.29432492D-02
  0.32211712D-03 -0.31140210D-02 -0.43910947D-02 -0.62804270D-02  0.31803198D-04
  0.57597439D-02  0.41037588D-11  0.24905734D-01 -0.44630157D-01 -0.27932544D-13
 -0.14815354D-03  0.20148139D-03 -0.20358287D-14 -0.11050150D-04  0.65648961D-05
  0.23068565D-04  0.39949762D-03 -0.42256619D-03  0.22194597D-13  0.29864122D-13
 -0.38762891D-03  0.53122715D-05 -0.25602005D-03  0.25070778D-03 -0.30566219D-13
 -0.17641646D-13  0.44664967D-03 -0.86789980D-06  0.38325560D-04 -0.37457661D-04
  0.77087374D-16 -0.19701286D-14 -0.17023866D-04 -0.14091653D-14 -0.33309385D-04
  0.96576830D-05 -0.54785682D-14  0.51362555D-04  0.69209409D-05  0.97060642D-14
  0.48565601D-04 -0.35893990D-04  0.30169216D-14  0.29391204D-14 -0.45252460D-04
 -0.15515973D-04 -0.37343717D-14  0.13871496D-04 -0.39304940D-04 -0.50829896D-14
  0.12188588D-03  0.85852858D-04 -0.10057961D-13 -0.14068845D-02 -0.26321308D-02
 -0.45477382D-02 -0.73724180D-02 -0.11195724D-01 -0.15561003D-01 -0.18500840D-01
 -0.16481192D-01 -0.81849082D-02 -0.13177010D-02 -0.13902524D-04 -0.68852465D-05
 -0.22968030D-03 -0.80038986D-03 -0.28823335D-02 -0.63537454D-02 -0.89440229D-02
  0.42665904D-03  0.11704807D-01  0.69209792D-02  0.84691987D-07  0.10258268D-05
  0.21392536D-05  0.61350069D-05  0.31858236D-06 -0.26457125D-04 -0.68360130D-04
  0.55696616D-04  0.30764226D-03 -0.18376497D-03 -0.16333480D-03  0.94388581D-09
  0.12433184D-08  0.13715748D-08  0.11392003D-08  0.60494697D-09  0.15607948D-09
 -0.42738056D+01 -0.56296018D+01 -0.62103320D+01 -0.51581670D+01 -0.27391298D+01
 -0.70670981D+00 -0.73667018D+01 -0.97036696D+01 -0.10704666D+02 -0.88910637D+01
 -0.47214015D+01 -0.12181463D+01 -0.38082489D-13  0.36815700D-12  0.51913980D-12
  0.74250725D-12 -0.37599522D-14 -0.68094918D-12  0.18447024D-03 -0.17833396D-02
 -0.25146950D-02 -0.35966790D-02  0.18213076D-04  0.32984939D-02  0.34519756D-03
 -0.33371479D-02 -0.47057269D-02 -0.67304343D-02  0.34081972D-04  0.61724431D-02
  0.62330516D-11 -0.27491626D-01 -0.47693054D-01 -0.41484830D-13  0.17665768D-03
  0.24113892D-03 -0.23977674D-14  0.12009545D-04  0.78851982D-05  0.23218030D-04
  0.45569741D-03 -0.47891544D-03 -0.60793689D-13  0.53281985D-13  0.42692000D-03
  0.19560846D-05 -0.28876174D-03  0.28680566D-03  0.51101152D-13 -0.31653699D-13
 -0.46164067D-03 -0.10333852D-05  0.38500924D-04 -0.37467539D-04 -0.20759134D-14
  0.97478362D-15  0.16456079D-04 -0.17846241D-15  0.31946288D-04  0.10162543D-04
 -0.22981547D-14 -0.49719590D-04  0.44719848D-05  0.28335420D-14 -0.46119274D-04
 -0.34959613D-04 -0.51189503D-15  0.33765908D-14  0.50830207D-04 -0.11765344D-04
 -0.73924737D-14 -0.13678016D-04 -0.42236025D-04 -0.27372987D-14 -0.13881260D-03
  0.77532057D-04  0.14853772D-13
MO    3     MO 0.0        OCC NO =    2.0000335  ORB. ENERGY =    0.000000
  0.56075758D-10  0.10451599D-09  0.17722155D-09  0.26820598D-09  0.33456582D-09
  0.28710724D-09  0.10994682D-09  0.74276933D-14  0.79694275D-13  0.29376810D-12
  0.85896070D-12  0.10350894D-11 -0.12468749D-11  0.50457465D-11 -0.11718776D-12
 -0.10228215D-13  0.23322129D-04  0.22614620D-04  0.15255689D-04  0.24257293D-12
  0.23521414D-12  0.15867407D-12 -0.22672274D-11 -0.21984479D-11 -0.14830600D-11
  0.70297593D-05  0.33863313D-13 -0.77665240D-13  0.42113637D-05 -0.71444467D-14
 -0.64605227D-13  0.27681894D-06  0.54669275D-14  0.22754811D-14 -0.13802228D-12
 -0.74985572D-13  0.21300786D-12  0.11434546D-03  0.47075994D-05  0.26739817D-13
  0.16218122D-14  0.38456207D-13 -0.40078019D-13  0.34704764D-04 -0.15445100D-05
 -0.19247235D-13 -0.93772089D-14  0.67888929D-14  0.25883159D-14 -0.15922820D-03
 -0.78296138D-06  0.19849618D-14  0.10354972D-06 -0.72689067D-14  0.34574549D-13
  0.21318348D-05  0.24663142D-13 -0.89242220D-13 -0.24424839D-05 -0.28564219D-14
 -0.14481426D-13 -0.78480700D-03  0.14795489D-06 -0.15641674D-14  0.11959556D-13
 -0.10017604D-05 -0.10313133D-13  0.61521674D-14  0.55789571D-06  0.15005635D-13
 -0.42030834D-13  0.24264471D-03 -0.20254577D-10 -0.37758611D-10 -0.63817197D-10
 -0.95929150D-10 -0.11783178D-09 -0.99445864D-10 -0.37394242D-10 -0.36593643D-14
 -0.27351481D-13 -0.10221873D-12 -0.28517434D-12 -0.38205499D-12  0.45113571D-12
 -0.15174892D-11 -0.92045232D-13  0.20270542D-13 -0.26472452D-04 -0.24819606D-04
 -0.17673038D-04 -0.85006260D-13 -0.79698772D-13 -0.56750274D-13 -0.20849016D-12
 -0.19547278D-12 -0.13918826D-12 -0.41480423D-05  0.28627386D-13  0.21859615D-13
 -0.79599164D-06  0.46750285D-13  0.51364835D-13 -0.64281777D-07 -0.42295577D-14
 -0.25887122D-14  0.47166464D-13 -0.27154907D-13 -0.20011557D-13  0.12113512D-02
  0.46728362D-05  0.12637233D-13  0.23623301D-13 -0.50830109D-13  0.27206808D-13
 -0.49148438D-04 -0.36808501D-05 -0.64087320D-13  0.44091788D-14 -0.10714848D-14
 -0.33376940D-14  0.72920179D-04 -0.51080044D-06 -0.11840042D-13  0.42756259D-06
  0.13311086D-13 -0.36988413D-13 -0.12147354D-05  0.42240001D-14  0.49096442D-13
 -0.67952375D-07 -0.44157259D-13  0.61868796D-13 -0.35355766D-03 -0.97778514D-07
 -0.10164600D-13  0.14704157D-13  0.11519562D-05 -0.56803939D-14 -0.13040715D-13
 -0.85862063D-06  0.36174194D-13 -0.31071756D-13  0.35687420D-03 -0.65244195D-10
 -0.12206493D-09 -0.21090112D-09 -0.34189549D-09 -0.51920112D-09 -0.72164070D-09
 -0.85797550D-09 -0.76431439D-09 -0.37957469D-09 -0.61108313D-10 -0.64472880D-12
 -0.16358613D-12 -0.54569594D-11 -0.19016411D-10 -0.68481175D-10 -0.15095823D-09
 -0.21250046D-09  0.10136965D-10  0.27809376D-09  0.16443510D-09 -0.39827343D-14
 -0.48240638D-13 -0.10060076D-12 -0.28850548D-12 -0.14981688D-13  0.12441755D-11
  0.32147106D-11 -0.26191949D-11  0.10413125D-10 -0.96402208D-13 -0.53857700D-13
  0.82214586D+01  0.10829584D+02  0.11946727D+02  0.99226919D+01  0.52692248D+01
  0.13594875D+01 -0.16321365D-08 -0.21499056D-08 -0.23716824D-08 -0.19698679D-08
 -0.10460545D-08 -0.26988754D-09 -0.50748931D-09 -0.66848214D-09 -0.73744044D-09
 -0.61250203D-09 -0.32525557D-09 -0.83917638D-10 -0.35961085D-03  0.34764864D-02
  0.49022087D-02  0.70114552D-02 -0.35505022D-04 -0.64301657D-02  0.62895917D-13
 -0.60803726D-12 -0.85739600D-12 -0.12263031D-11  0.62098263D-14  0.11246356D-11
  0.14706305D-13 -0.14217109D-12 -0.20047608D-12 -0.28673382D-12  0.14519797D-14
  0.26296196D-12  0.53750074D-01 -0.11398717D-10 -0.38139686D-11 -0.42327821D-03
  0.84754650D-13  0.51491270D-14 -0.15045969D-04  0.22055544D-15 -0.12718291D-14
 -0.87090132D-14  0.37069922D-14  0.50020210D-14  0.91270698D-03  0.50511071D-03
  0.18549580D-12 -0.41263449D-13  0.61915405D-13 -0.20651955D-13 -0.47948224D-03
 -0.31812531D-03  0.66138329D-13 -0.81312359D-16  0.18210363D-14 -0.17397239D-14
  0.21777710D-04  0.37169701D-04  0.31922702D-14  0.23138213D-04  0.49044323D-14
 -0.11225814D-14  0.41320544D-04 -0.22298244D-13 -0.35613815D-14 -0.11073518D-03
  0.75849468D-14  0.69291258D-14  0.57290647D-05  0.17775713D-04  0.54652902D-14
 -0.39815677D-14 -0.92463596D-04 -0.10579368D-13 -0.79738696D-14  0.39136458D-04
 -0.58165031D-14  0.19918573D-13 -0.14696391D-03 -0.25767330D-10 -0.48207924D-10
 -0.83292600D-10 -0.13502709D-09 -0.20505160D-09 -0.28500243D-09 -0.33884605D-09
 -0.30185583D-09 -0.14990799D-09 -0.24133918D-10 -0.25462709D-12 -0.33715496D-13
 -0.11246925D-11 -0.39193282D-11 -0.14114136D-10 -0.31112855D-10 -0.43796859D-10
  0.20892529D-11  0.57315795D-10  0.33890471D-10 -0.92690567D-15 -0.11227091D-13
 -0.23412915D-13 -0.67144164D-13 -0.34867029D-14  0.28955820D-12  0.74816277D-12
 -0.60956781D-12  0.21316953D-11 -0.61968973D-13 -0.70378446D-14 -0.82069234D+01
 -0.10810438D+02 -0.11925605D+02 -0.99051489D+01 -0.52599089D+01 -0.13570840D+01
  0.97053022D-10  0.12784153D-09  0.14102922D-09  0.11713581D-09  0.62202367D-10
  0.16048536D-10 -0.72971850D-09 -0.96120997D-09 -0.10603651D-08 -0.88071621D-09
 -0.46768475D-09 -0.12066511D-09  0.35876557D-03 -0.34683147D-02 -0.48906857D-02
 -0.69949743D-02  0.35421565D-04  0.64150512D-02  0.46830873D-14 -0.45273074D-13
 -0.63839761D-13 -0.91307746D-13  0.46236957D-15  0.83737815D-13  0.31168150D-13
 -0.30131362D-12 -0.42488366D-12 -0.60769603D-12  0.30772872D-14  0.55731458D-12
 -0.53639595D-01  0.98857757D-12 -0.48713442D-11  0.42302160D-03  0.95450167D-14
  0.32295800D-13  0.15125055D-04  0.21251652D-14  0.17528466D-14  0.38138034D-15
  0.61703883D-13 -0.62085263D-13  0.90845371D-03 -0.51064495D-03 -0.13939187D-14
 -0.19417884D-13 -0.57252309D-14  0.25143115D-13 -0.47259324D-03  0.31767484D-03
 -0.40813922D-13 -0.28131244D-14  0.43038959D-14 -0.14907715D-14  0.21783020D-04
 -0.37246229D-04  0.38626545D-14 -0.22873258D-04 -0.31919880D-14 -0.49395155D-14
 -0.42211469D-04  0.14258006D-13 -0.12519609D-14  0.11083124D-03 -0.46820418D-14
  0.16070507D-13  0.88869946D-05 -0.17530170D-04  0.12543444D-14  0.49791329D-14
  0.90891704D-04  0.73095764D-14 -0.82749418D-14 -0.38301194D-04 -0.11072610D-13
 -0.66624568D-14 -0.14700086D-03
MO    4     MO 0.0        OCC NO =    2.0000300  ORB. ENERGY =    0.000000
  0.90266530D-11  0.16824197D-10  0.28527790D-10  0.43173777D-10  0.53855884D-10
  0.46216361D-10  0.17698411D-10  0.10926461D-14  0.11723376D-13  0.43214571D-13
  0.12635687D-12  0.15226617D-12 -0.18342074D-12  0.80641522D-12  0.71893724D-13
  0.50913577D-13 -0.52071513D-02 -0.50491852D-02 -0.34061505D-02 -0.22854591D-12
 -0.22161266D-12 -0.14949859D-12 -0.39318584D-12 -0.38125801D-12 -0.25719440D-12
 -0.14851018D-02 -0.47863216D-13 -0.74525884D-13 -0.31359446D-03 -0.33528046D-13
  0.66525473D-14  0.14307236D-04 -0.47968082D-14 -0.19994736D-14 -0.18982817D-13
 -0.25059671D-13  0.44042488D-13  0.36190464D-05 -0.38951236D-03 -0.26088862D-13
 -0.17390329D-13  0.11644240D-13  0.57460897D-14 -0.27070944D-05  0.17564000D-03
  0.21793198D-13  0.49261886D-14 -0.48087520D-15 -0.44453134D-14 -0.72335989D-06
  0.28425313D-04  0.11334808D-13  0.62593241D-04 -0.98630666D-15  0.11845243D-13
 -0.33506488D-03 -0.13469409D-13 -0.17726835D-13  0.14728516D-03  0.16428329D-13
 -0.17808895D-13 -0.17722061D-05 -0.26842011D-04  0.31327397D-14 -0.71860276D-15
  0.13990127D-03  0.60035447D-14  0.49813734D-14 -0.59375239D-04 -0.15401764D-13
 -0.28255651D-14  0.31172357D-05 -0.63712525D-11 -0.11877298D-10 -0.20074252D-10
 -0.30175345D-10 -0.37065007D-10 -0.31281558D-10 -0.11762683D-10 -0.71829262D-15
 -0.53687923D-14 -0.20064403D-13 -0.55976560D-13 -0.74993157D-13  0.88552935D-13
 -0.53156103D-12  0.31895173D-13  0.90277019D-14  0.37210634D-02  0.34887334D-02
  0.24841860D-02  0.25080047D-12  0.23514138D-12  0.16743467D-12  0.27111637D-12
  0.25418883D-12  0.18099759D-12  0.84672191D-03 -0.53801068D-14  0.13136373D-13
  0.87514096D-04  0.17035784D-13 -0.61476214D-13 -0.16000753D-04  0.44196946D-14
 -0.20587876D-14  0.90243265D-14  0.84109063D-13 -0.93133389D-13 -0.67106865D-05
 -0.10359238D-02 -0.24911280D-13 -0.88199319D-14  0.14865927D-13 -0.60459947D-14
  0.34931231D-05  0.94322586D-04  0.69562319D-13 -0.13520358D-14  0.12642341D-13
 -0.11290305D-13  0.25825250D-06 -0.41456568D-04  0.61667366D-14 -0.87602675D-04
 -0.89473639D-14  0.10766000D-14  0.13684682D-03  0.53823555D-15  0.51903156D-14