 cl2co-wavefunction
GAUSSIAN            192 MOL ORBITALS    372 PRIMITIVES        4 NUCLEI
  O    1    (CENTRE  1)   0.00000000  0.00000000  1.29143317  CHARGE =  8.0
  C    2    (CENTRE  2)   0.00000000  0.00000000 -0.93482295  CHARGE =  6.0
  Cl   3    (CENTRE  3)   0.00000000 -2.75308531 -2.77752892  CHARGE = 17.0
  Cl   4    (CENTRE  4)   0.00000000  2.73418805 -2.77752892  CHARGE = 17.0
CENTRE ASSIGNMENTS    1  1  1  1  1  1  1  1  1  1  1  1  1  1  1  1  1  1  1  1
CENTRE ASSIGNMENTS    1  1  1  1  1  1  1  1  1  1  1  1  1  1  1  1  1  1  1  1
CENTRE ASSIGNMENTS    1  1  1  1  1  1  1  1  1  1  1  1  1  1  1  1  1  1  1  1
CENTRE ASSIGNMENTS    1  1  1  1  1  1  1  1  1  1  1  1  2  2  2  2  2  2  2  2
CENTRE ASSIGNMENTS    2  2  2  2  2  2  2  2  2  2  2  2  2  2  2  2  2  2  2  2
CENTRE ASSIGNMENTS    2  2  2  2  2  2  2  2  2  2  2  2  2  2  2  2  2  2  2  2
CENTRE ASSIGNMENTS    2  2  2  2  2  2  2  2  2  2  2  2  2  2  2  2  2  2  2  2
CENTRE ASSIGNMENTS    2  2  2  2  3  3  3  3  3  3  3  3  3  3  3  3  3  3  3  3
CENTRE ASSIGNMENTS    3  3  3  3  3  3  3  3  3  3  3  3  3  3  3  3  3  3  3  3
CENTRE ASSIGNMENTS    3  3  3  3  3  3  3  3  3  3  3  3  3  3  3  3  3  3  3  3
CENTRE ASSIGNMENTS    3  3  3  3  3  3  3  3  3  3  3  3  3  3  3  3  3  3  3  3
CENTRE ASSIGNMENTS    3  3  3  3  3  3  3  3  3  3  3  3  3  3  3  3  3  3  3  3
CENTRE ASSIGNMENTS    3  3  3  3  3  3  3  3  3  3  3  3  3  3  3  3  3  3  4  4
CENTRE ASSIGNMENTS    4  4  4  4  4  4  4  4  4  4  4  4  4  4  4  4  4  4  4  4
CENTRE ASSIGNMENTS    4  4  4  4  4  4  4  4  4  4  4  4  4  4  4  4  4  4  4  4
CENTRE ASSIGNMENTS    4  4  4  4  4  4  4  4  4  4  4  4  4  4  4  4  4  4  4  4
CENTRE ASSIGNMENTS    4  4  4  4  4  4  4  4  4  4  4  4  4  4  4  4  4  4  4  4
CENTRE ASSIGNMENTS    4  4  4  4  4  4  4  4  4  4  4  4  4  4  4  4  4  4  4  4
CENTRE ASSIGNMENTS    4  4  4  4  4  4  4  4  4  4  4  4
TYPE ASSIGNMENTS      1  1  1  1  1  1  1  1  1  1  1  1  1  1  1  1  2  2  2  3
TYPE ASSIGNMENTS      3  3  4  4  4  2  3  4  2  3  4  2  3  4  5  6  7  8  9 10
TYPE ASSIGNMENTS      5  6  7  8  9 10  5  6  7  8  9 10 11 12 13 17 14 15 18 19
TYPE ASSIGNMENTS     16 20 11 12 13 17 14 15 18 19 16 20  1  1  1  1  1  1  1  1
TYPE ASSIGNMENTS      1  1  1  1  1  1  1  1  2  2  2  3  3  3  4  4  4  2  3  4
TYPE ASSIGNMENTS      2  3  4  2  3  4  5  6  7  8  9 10  5  6  7  8  9 10  5  6
TYPE ASSIGNMENTS      7  8  9 10 11 12 13 17 14 15 18 19 16 20 11 12 13 17 14 15
TYPE ASSIGNMENTS     18 19 16 20  1  1  1  1  1  1  1  1  1  1  1  1  1  1  1  1
TYPE ASSIGNMENTS      1  1  1  1  1  1  1  1  1  1  1  1  1  1  1  2  2  2  2  2
TYPE ASSIGNMENTS      2  3  3  3  3  3  3  4  4  4  4  4  4  2  2  2  2  2  2  3
TYPE ASSIGNMENTS      3  3  3  3  3  4  4  4  4  4  4  2  3  4  2  3  4  2  3  4
TYPE ASSIGNMENTS      5  6  7  8  9 10  5  6  7  8  9 10  5  6  7  8  9 10 11 12
TYPE ASSIGNMENTS     13 17 14 15 18 19 16 20 11 12 13 17 14 15 18 19 16 20  1  1
TYPE ASSIGNMENTS      1  1  1  1  1  1  1  1  1  1  1  1  1  1  1  1  1  1  1  1
TYPE ASSIGNMENTS      1  1  1  1  1  1  1  1  1  2  2  2  2  2  2  3  3  3  3  3
TYPE ASSIGNMENTS      3  4  4  4  4  4  4  2  2  2  2  2  2  3  3  3  3  3  3  4
TYPE ASSIGNMENTS      4  4  4  4  4  2  3  4  2  3  4  2  3  4  5  6  7  8  9 10
TYPE ASSIGNMENTS      5  6  7  8  9 10  5  6  7  8  9 10 11 12 13 17 14 15 18 19
TYPE ASSIGNMENTS     16 20 11 12 13 17 14 15 18 19 16 20
EXPONENTS  0.1533000D+05 0.2299000D+04 0.5224000D+03 0.1473000D+03 0.4755000D+02
EXPONENTS  0.1676000D+02 0.6207000D+01 0.5224000D+03 0.1473000D+03 0.4755000D+02
EXPONENTS  0.1676000D+02 0.6207000D+01 0.6882000D+00 0.1752000D+01 0.2384000D+00
EXPONENTS  0.7376000D-01 0.3446000D+02 0.7749000D+01 0.2280000D+01 0.3446000D+02
EXPONENTS  0.7749000D+01 0.2280000D+01 0.3446000D+02 0.7749000D+01 0.2280000D+01
EXPONENTS  0.7156000D+00 0.7156000D+00 0.7156000D+00 0.2140000D+00 0.2140000D+00
EXPONENTS  0.2140000D+00 0.5974000D-01 0.5974000D-01 0.5974000D-01 0.2314000D+01
EXPONENTS  0.2314000D+01 0.2314000D+01 0.2314000D+01 0.2314000D+01 0.2314000D+01
EXPONENTS  0.6450000D+00 0.6450000D+00 0.6450000D+00 0.6450000D+00 0.6450000D+00
EXPONENTS  0.6450000D+00 0.2140000D+00 0.2140000D+00 0.2140000D+00 0.2140000D+00
EXPONENTS  0.2140000D+00 0.2140000D+00 0.1428000D+01 0.1428000D+01 0.1428000D+01
EXPONENTS  0.1428000D+01 0.1428000D+01 0.1428000D+01 0.1428000D+01 0.1428000D+01
EXPONENTS  0.1428000D+01 0.1428000D+01 0.5000000D+00 0.5000000D+00 0.5000000D+00
EXPONENTS  0.5000000D+00 0.5000000D+00 0.5000000D+00 0.5000000D+00 0.5000000D+00
EXPONENTS  0.5000000D+00 0.5000000D+00 0.8236000D+04 0.1235000D+04 0.2808000D+03
EXPONENTS  0.7927000D+02 0.2559000D+02 0.8997000D+01 0.3319000D+01 0.2808000D+03
EXPONENTS  0.7927000D+02 0.2559000D+02 0.8997000D+01 0.3319000D+01 0.3643000D+00
EXPONENTS  0.9059000D+00 0.1285000D+00 0.4402000D-01 0.1871000D+02 0.4133000D+01
EXPONENTS  0.1200000D+01 0.1871000D+02 0.4133000D+01 0.1200000D+01 0.1871000D+02
EXPONENTS  0.4133000D+01 0.1200000D+01 0.3827000D+00 0.3827000D+00 0.3827000D+00
EXPONENTS  0.1209000D+00 0.1209000D+00 0.1209000D+00 0.3569000D-01 0.3569000D-01
EXPONENTS  0.3569000D-01 0.1097000D+01 0.1097000D+01 0.1097000D+01 0.1097000D+01
EXPONENTS  0.1097000D+01 0.1097000D+01 0.3180000D+00 0.3180000D+00 0.3180000D+00
EXPONENTS  0.3180000D+00 0.3180000D+00 0.3180000D+00 0.1000000D+00 0.1000000D+00
EXPONENTS  0.1000000D+00 0.1000000D+00 0.1000000D+00 0.1000000D+00 0.7610000D+00
EXPONENTS  0.7610000D+00 0.7610000D+00 0.7610000D+00 0.7610000D+00 0.7610000D+00
EXPONENTS  0.7610000D+00 0.7610000D+00 0.7610000D+00 0.7610000D+00 0.2680000D+00
EXPONENTS  0.2680000D+00 0.2680000D+00 0.2680000D+00 0.2680000D+00 0.2680000D+00
EXPONENTS  0.2680000D+00 0.2680000D+00 0.2680000D+00 0.2680000D+00 0.4561000D+06
EXPONENTS  0.6833000D+05 0.1555000D+05 0.4405000D+04 0.1439000D+04 0.5204000D+03
EXPONENTS  0.2031000D+03 0.8396000D+02 0.3620000D+02 0.1583000D+02 0.6334000D+01
EXPONENTS  0.4405000D+04 0.1439000D+04 0.5204000D+03 0.2031000D+03 0.8396000D+02
EXPONENTS  0.3620000D+02 0.1583000D+02 0.6334000D+01 0.2694000D+01 0.1439000D+04
EXPONENTS  0.2031000D+03 0.8396000D+02 0.3620000D+02 0.1583000D+02 0.6334000D+01
EXPONENTS  0.2694000D+01 0.4313000D+00 0.9768000D+00 0.1625000D+00 0.5910000D-01
EXPONENTS  0.6633000D+03 0.1568000D+03 0.4998000D+02 0.1842000D+02 0.7240000D+01
EXPONENTS  0.2922000D+01 0.6633000D+03 0.1568000D+03 0.4998000D+02 0.1842000D+02
EXPONENTS  0.7240000D+01 0.2922000D+01 0.6633000D+03 0.1568000D+03 0.4998000D+02
EXPONENTS  0.1842000D+02 0.7240000D+01 0.2922000D+01 0.1568000D+03 0.4998000D+02
EXPONENTS  0.1842000D+02 0.7240000D+01 0.2922000D+01 0.3818000D+00 0.1568000D+03
EXPONENTS  0.4998000D+02 0.1842000D+02 0.7240000D+01 0.2922000D+01 0.3818000D+00
EXPONENTS  0.1568000D+03 0.4998000D+02 0.1842000D+02 0.7240000D+01 0.2922000D+01
EXPONENTS  0.3818000D+00 0.1022000D+01 0.1022000D+01 0.1022000D+01 0.1301000D+00
EXPONENTS  0.1301000D+00 0.1301000D+00 0.4190000D-01 0.4190000D-01 0.4190000D-01
EXPONENTS  0.1046000D+01 0.1046000D+01 0.1046000D+01 0.1046000D+01 0.1046000D+01
EXPONENTS  0.1046000D+01 0.3440000D+00 0.3440000D+00 0.3440000D+00 0.3440000D+00
EXPONENTS  0.3440000D+00 0.3440000D+00 0.1350000D+00 0.1350000D+00 0.1350000D+00
EXPONENTS  0.1350000D+00 0.1350000D+00 0.1350000D+00 0.7060000D+00 0.7060000D+00
EXPONENTS  0.7060000D+00 0.7060000D+00 0.7060000D+00 0.7060000D+00 0.7060000D+00
EXPONENTS  0.7060000D+00 0.7060000D+00 0.7060000D+00 0.3120000D+00 0.3120000D+00
EXPONENTS  0.3120000D+00 0.3120000D+00 0.3120000D+00 0.3120000D+00 0.3120000D+00
EXPONENTS  0.3120000D+00 0.3120000D+00 0.3120000D+00 0.4561000D+06 0.6833000D+05
EXPONENTS  0.1555000D+05 0.4405000D+04 0.1439000D+04 0.5204000D+03 0.2031000D+03
EXPONENTS  0.8396000D+02 0.3620000D+02 0.1583000D+02 0.6334000D+01 0.4405000D+04
EXPONENTS  0.1439000D+04 0.5204000D+03 0.2031000D+03 0.8396000D+02 0.3620000D+02
EXPONENTS  0.1583000D+02 0.6334000D+01 0.2694000D+01 0.1439000D+04 0.2031000D+03
EXPONENTS  0.8396000D+02 0.3620000D+02 0.1583000D+02 0.6334000D+01 0.2694000D+01
EXPONENTS  0.4313000D+00 0.9768000D+00 0.1625000D+00 0.5910000D-01 0.6633000D+03
EXPONENTS  0.1568000D+03 0.4998000D+02 0.1842000D+02 0.7240000D+01 0.2922000D+01
EXPONENTS  0.6633000D+03 0.1568000D+03 0.4998000D+02 0.1842000D+02 0.7240000D+01
EXPONENTS  0.2922000D+01 0.6633000D+03 0.1568000D+03 0.4998000D+02 0.1842000D+02
EXPONENTS  0.7240000D+01 0.2922000D+01 0.1568000D+03 0.4998000D+02 0.1842000D+02
EXPONENTS  0.7240000D+01 0.2922000D+01 0.3818000D+00 0.1568000D+03 0.4998000D+02
EXPONENTS  0.1842000D+02 0.7240000D+01 0.2922000D+01 0.3818000D+00 0.1568000D+03
EXPONENTS  0.4998000D+02 0.1842000D+02 0.7240000D+01 0.2922000D+01 0.3818000D+00
EXPONENTS  0.1022000D+01 0.1022000D+01 0.1022000D+01 0.1301000D+00 0.1301000D+00
EXPONENTS  0.1301000D+00 0.4190000D-01 0.4190000D-01 0.4190000D-01 0.1046000D+01
EXPONENTS  0.1046000D+01 0.1046000D+01 0.1046000D+01 0.1046000D+01 0.1046000D+01
EXPONENTS  0.3440000D+00 0.3440000D+00 0.3440000D+00 0.3440000D+00 0.3440000D+00
EXPONENTS  0.3440000D+00 0.1350000D+00 0.1350000D+00 0.1350000D+00 0.1350000D+00
EXPONENTS  0.1350000D+00 0.1350000D+00 0.7060000D+00 0.7060000D+00 0.7060000D+00
EXPONENTS  0.7060000D+00 0.7060000D+00 0.7060000D+00 0.7060000D+00 0.7060000D+00
EXPONENTS  0.7060000D+00 0.7060000D+00 0.3120000D+00 0.3120000D+00 0.3120000D+00
EXPONENTS  0.3120000D+00 0.3120000D+00 0.3120000D+00 0.3120000D+00 0.3120000D+00
EXPONENTS  0.3120000D+00 0.3120000D+00
MO    1     MO 0.0        OCC NO =    2.0000387  ORB. ENERGY =    0.000000
  0.31952213D-03  0.59553671D-03  0.10098162D-02  0.15282494D-02  0.19063707D-02
  0.16359497D-02  0.62648181D-03  0.58260547D-07  0.62509743D-06  0.23042268D-05
  0.67374241D-05  0.81189237D-05 -0.97801039D-05  0.30294088D-04  0.35846713D-05
  0.13827353D-04 -0.84299095D-13 -0.81741766D-13 -0.55142512D-13 -0.89184471D-03
 -0.86478937D-03 -0.58338180D-03  0.83535699D-04  0.81001528D-04  0.54643152D-04
 -0.25367623D-13 -0.94542297D-03  0.37252009D-04 -0.67841275D-14 -0.76040358D-03
  0.30671193D-04 -0.56730648D-15 -0.20144675D-04  0.56279996D-06  0.74100184D-05
 -0.11288667D-04  0.38786486D-05  0.54822055D-14  0.16154196D-14 -0.20754817D-03
 -0.41752390D-05  0.13672948D-04 -0.94977087D-05  0.25561637D-14  0.42714483D-14
 -0.63654698D-04  0.35357133D-05  0.11412194D-05 -0.46769326D-05 -0.15419732D-13
  0.17840255D-14  0.11244510D-03  0.18229974D-14 -0.14649190D-03  0.24168369D-05
 -0.69367742D-14  0.22232748D-03 -0.61084386D-06  0.14677821D-14  0.21714821D-03
 -0.66396667D-05 -0.68116382D-13 -0.16114337D-15 -0.96952292D-05  0.13366044D-05
  0.26976933D-14 -0.19939850D-03  0.20862562D-05 -0.22142632D-14  0.22848418D-03
 -0.60960694D-05  0.21977625D-13 -0.19854798D-03 -0.37013343D-03 -0.62557592D-03
 -0.94035728D-03 -0.11550605D-02 -0.97483031D-03 -0.36656165D-03 -0.22339891D-06
 -0.16697684D-05 -0.62403059D-05 -0.17409482D-04 -0.23323906D-04  0.27541184D-04
 -0.57507798D-05  0.74937785D-06  0.48549746D-05  0.42024229D-13  0.39400386D-13
  0.28055422D-13  0.11170218D-02  0.10472790D-02  0.74572501D-03  0.63533956D-04
  0.59567122D-04  0.42415339D-04  0.13050916D-13  0.14980350D-03  0.50416310D-04
  0.12538072D-14  0.70338630D-04 -0.12951404D-04  0.29894548D-15 -0.86425187D-05
 -0.10297670D-05 -0.39280246D-05  0.42705822D-04 -0.38777798D-04  0.12152824D-12
 -0.13961888D-13  0.17897112D-03  0.43374107D-05 -0.16410631D-04  0.12073220D-04
 -0.34606480D-14  0.37469741D-14  0.83360912D-04 -0.81745482D-07  0.57198639D-05
 -0.56381184D-05  0.72479472D-14  0.60677505D-16  0.55487730D-04 -0.19134646D-14
  0.25362086D-03  0.87807989D-05  0.10982755D-14  0.35283852D-04 -0.12112855D-04
  0.46421184D-14 -0.79614644D-03 -0.14229542D-04 -0.36712032D-13  0.56827622D-15
 -0.25741597D-03 -0.45967310D-05 -0.16642038D-14  0.27170532D-04  0.54435061D-05
 -0.40624892D-16  0.74507738D-03  0.83466868D-05  0.34850889D-13 -0.41886727D-03
 -0.78365596D-03 -0.13539837D-02 -0.21949666D-02 -0.33332675D-02 -0.46329282D-02
 -0.55081966D-02 -0.49068929D-02 -0.24368668D-02 -0.39231494D-03 -0.41391543D-05
 -0.22828628D-05 -0.76152483D-04 -0.26537616D-03 -0.95566251D-03 -0.21066391D-02
 -0.29654679D-02  0.14146248D-03  0.38808297D-02  0.22947103D-02  0.26777459D-06
  0.32434042D-05  0.67637775D-05  0.19397336D-04  0.10072767D-05 -0.83650721D-04
 -0.21613740D-03  0.17609858D-03  0.11596609D-03 -0.11580836D-03 -0.66498830D-04
  0.72639534D-09  0.95683259D-09  0.10555361D-08  0.87670540D-09  0.46555489D-09
  0.12011560D-09 -0.44225556D+01 -0.58255403D+01 -0.64264828D+01 -0.53376972D+01
 -0.28344653D+01 -0.73130686D+00  0.64227154D+01  0.84602186D+01  0.93329454D+01
  0.77517419D+01  0.41163901D+01  0.10620502D+01 -0.32330323D-13  0.31254876D-12
  0.44072637D-12  0.63035530D-12 -0.31920305D-14 -0.57809526D-12  0.22614660D-03
 -0.21862398D-02 -0.30828263D-02 -0.44092571D-02  0.22327858D-04  0.40437047D-02
 -0.31685136D-03  0.30631151D-02  0.43193121D-02  0.61777589D-02 -0.31283301D-04
 -0.56655875D-02  0.47340400D-11 -0.28380411D-01  0.41419885D-01 -0.37648917D-13
  0.32929715D-03 -0.54377520D-03 -0.15163119D-14  0.10212275D-04 -0.16943091D-04
 -0.14802684D-04 -0.71619978D-03  0.73100246D-03  0.85498641D-13  0.42494949D-13
  0.67089179D-03  0.57290328D-04  0.41152549D-03 -0.46881581D-03 -0.41727031D-13
 -0.27543173D-13 -0.33280609D-03  0.47313056D-05 -0.41400851D-06 -0.43172971D-05
  0.25334466D-14  0.37311556D-14 -0.57576318D-05  0.26816799D-14 -0.13834005D-04
 -0.18399881D-05  0.28033692D-14  0.17391366D-04  0.36588243D-04 -0.10848409D-13
  0.24110650D-04 -0.31068279D-04  0.41853895D-15  0.11325085D-14  0.71983082D-04
 -0.41388992D-04 -0.74584329D-14  0.12521338D-04  0.48802996D-04  0.40609074D-14
 -0.22847058D-03  0.75363981D-04 -0.12777870D-13  0.16620610D-03  0.31095387D-03
  0.53725932D-03  0.87096049D-03  0.13226371D-02  0.18383411D-02  0.21856467D-02
  0.19470500D-02  0.96694622D-03  0.15567016D-03  0.16424121D-05  0.10721542D-05
  0.35765270D-04  0.12463481D-03  0.44883011D-03  0.98939013D-03  0.13927420D-02
 -0.66438332D-04 -0.18226447D-02 -0.10777184D-02 -0.27572324D-06 -0.33396817D-05
 -0.69645541D-05 -0.19973129D-04 -0.10371768D-05  0.86133817D-04  0.22255324D-03
 -0.18132591D-03 -0.57547855D-04  0.98140258D-04  0.49733432D-04 -0.95293658D-09
 -0.12552404D-08 -0.13847267D-08 -0.11501239D-08 -0.61074771D-09 -0.15757610D-09
 -0.48450035D+01 -0.63820031D+01 -0.70403484D+01 -0.58475606D+01 -0.31052169D+01
 -0.80116220D+00 -0.71312956D+01 -0.93935845D+01 -0.10362594D+02 -0.86069458D+01
 -0.45705270D+01 -0.11792199D+01  0.40879632D-13 -0.39519798D-12 -0.55727041D-12
 -0.79704410D-12  0.40361191D-14  0.73096461D-12  0.24472040D-03 -0.23657994D-02
 -0.33360241D-02 -0.47713969D-02  0.24161682D-04  0.43758210D-02  0.35138209D-03
 -0.33969360D-02 -0.47900343D-02 -0.68510162D-02  0.34692582D-04  0.62830281D-02
 -0.62439393D-11 -0.31095945D-01 -0.46013415D-01  0.48537204D-13  0.34734942D-03
  0.56860160D-03  0.16130206D-14  0.11333897D-04  0.17472519D-04  0.17357093D-04
  0.76355752D-03 -0.78091461D-03  0.98385158D-13 -0.59880032D-13  0.70767827D-03
 -0.59108393D-04 -0.44483578D-03  0.50394417D-03 -0.53483319D-13  0.35466971D-13
 -0.38114500D-03 -0.50083226D-05  0.40876251D-05  0.92069745D-06  0.22570967D-14
 -0.36973229D-14 -0.44105050D-05 -0.22088903D-14 -0.98717621D-05  0.31079596D-05
 -0.35889128D-14  0.12925308D-04 -0.37629224D-04  0.10215584D-13  0.16689978D-04
  0.28305345D-04  0.25831770D-14 -0.20974575D-14  0.77127923D-04  0.40835661D-04
  0.97620414D-14  0.11715619D-04 -0.53475031D-04 -0.34696689D-14 -0.24309939D-03
 -0.69031953D-04 -0.16535856D-13
MO    2     MO 0.0        OCC NO =    2.0000377  ORB. ENERGY =    0.000000
  0.54924625D-02  0.10237047D-01  0.17358352D-01  0.26270020D-01  0.32769779D-01
  0.28121346D-01  0.10768981D-01  0.88599846D-06  0.95061821D-05  0.35041577D-04
  0.10245952D-03  0.12346870D-03 -0.14873113D-03  0.53900664D-03  0.20580391D-03
  0.29979523D-03 -0.87873523D-12 -0.85207758D-12 -0.57480650D-12  0.12540860D-04
  0.12160416D-04  0.82033449D-05  0.15837299D-02  0.15356853D-02  0.10359642D-02
 -0.24802874D-12  0.39869044D-04  0.57558466D-03 -0.50716481D-13  0.34539945D-04
  0.48891035D-03  0.21738735D-14  0.10614079D-05  0.10477846D-04  0.13085933D-03
 -0.21688614D-03  0.86026805D-04  0.25430472D-14 -0.56475703D-13  0.12233521D-04
 -0.77173853D-04  0.24518869D-03 -0.16801484D-03 -0.76277702D-15  0.21107265D-13
 -0.17013841D-05  0.57251176D-04  0.22014693D-04 -0.79265868D-04 -0.31906033D-14
  0.41127871D-14 -0.46404880D-05  0.90794209D-14  0.60451193D-05  0.29795850D-04
 -0.56343386D-13 -0.14238936D-04 -0.34183105D-04  0.29105123D-13 -0.38964213D-05
 -0.55204446D-04 -0.29482685D-13 -0.49986136D-14  0.10201325D-06  0.35308624D-04
  0.22781238D-13  0.99893702D-05  0.31555958D-04 -0.77853969D-14 -0.10295410D-04
 -0.13748183D-03  0.60468832D-14 -0.38690377D-02 -0.72126658D-02 -0.12190388D-01
 -0.18324427D-01 -0.22508276D-01 -0.18996191D-01 -0.71430638D-02 -0.41325981D-05
 -0.30888610D-04 -0.11543779D-03 -0.32205346D-03 -0.43146284D-03  0.50947717D-03
 -0.10434340D-03 -0.66463548D-05  0.86059125D-04  0.65170432D-12  0.61101423D-12
  0.43507853D-12 -0.28743918D-04 -0.26949251D-04 -0.19189472D-04  0.96846609D-03
  0.90799852D-03  0.64654904D-03  0.14636605D-12 -0.10704204D-04  0.81222724D-03
  0.17737867D-13 -0.21726479D-07 -0.20138516D-03 -0.24239328D-14  0.50348190D-06
 -0.22004817D-04 -0.66539621D-04  0.67536700D-03 -0.60882738D-03  0.21918886D-13
 -0.17839289D-12 -0.12495058D-04  0.80949173D-04 -0.15903619D-03  0.78087016D-04
 -0.19792678D-14  0.10703092D-13 -0.54519647D-05 -0.19850725D-06  0.11527337D-03
 -0.11507486D-03  0.10055636D-14 -0.75435304D-14 -0.35705855D-05 -0.13830187D-13
 -0.10786956D-04  0.13290189D-03  0.23905256D-13 -0.86759143D-06 -0.16921306D-03
  0.17585306D-13  0.33228459D-04 -0.22949262D-03 -0.10838838D-13  0.51126315D-14
  0.12045533D-04 -0.66327834D-04 -0.18406173D-13 -0.16892615D-05  0.92694857D-04
  0.30682780D-14 -0.34447336D-04  0.10628865D-03  0.76831468D-14 -0.14127230D-02
 -0.26430540D-02 -0.45666111D-02 -0.74030131D-02 -0.11242186D-01 -0.15625580D-01
 -0.18577618D-01 -0.16549588D-01 -0.82188751D-02 -0.13231694D-02 -0.13960218D-04
 -0.69071878D-05 -0.23041222D-03 -0.80294046D-03 -0.28915186D-02 -0.63739929D-02
 -0.89725248D-02  0.42801868D-03  0.11742107D-01  0.69430343D-02  0.79914942D-07
  0.96796510D-06  0.20185892D-05  0.57889623D-05  0.30061275D-06 -0.24964813D-04
 -0.64504282D-04  0.52555053D-04  0.30960720D-03 -0.18456964D-03 -0.16434052D-03
 -0.13036681D-08 -0.17172359D-08 -0.18943800D-08 -0.15734309D-08 -0.83553547D-09
 -0.21557252D-09  0.43038135D+01  0.56691292D+01  0.62539370D+01  0.51943843D+01
  0.27583622D+01  0.71167187D+00 -0.74662847D+01 -0.98348435D+01 -0.10849372D+02
 -0.90112529D+01 -0.47852253D+01 -0.12346131D+01  0.50667568D-13 -0.48982144D-12
 -0.69069937D-12 -0.98788281D-12  0.50024995D-14  0.90598171D-12 -0.18568859D-03
  0.17951178D-02  0.25313035D-02  0.36204337D-02 -0.18333367D-04 -0.33202792D-02
  0.34890713D-03 -0.33730097D-02 -0.47562957D-02 -0.68027611D-02  0.34448225D-04
  0.62387735D-02 -0.86299854D-11  0.27677203D-01 -0.48321061D-01  0.57547119D-13
 -0.18484024D-03  0.24827743D-03  0.34242202D-14 -0.12334188D-04  0.82692878D-05
  0.22440102D-04  0.46237765D-03 -0.48481775D-03 -0.62208034D-13 -0.68165205D-13
 -0.44090668D-03  0.14893363D-05 -0.28727640D-03  0.28578706D-03  0.64468472D-13
  0.39425333D-13  0.45834539D-03 -0.61461810D-06  0.37815879D-04 -0.37201261D-04
 -0.17263449D-14  0.83905367D-15 -0.18119911D-04  0.18652997D-14 -0.29427448D-04
  0.10017868D-04  0.68823456D-14  0.46526172D-04  0.46215360D-05 -0.12478245D-13
  0.41756172D-04 -0.34675141D-04 -0.18278174D-14 -0.52689432D-14 -0.50822975D-04
 -0.11453095D-04  0.85116360D-14  0.13929043D-04 -0.41962524D-04  0.72951936D-14
  0.13853988D-03  0.76321808D-04  0.19159874D-13 -0.15867770D-02 -0.29686905D-02
 -0.51292388D-02 -0.83150987D-02 -0.12627275D-01 -0.17550725D-01 -0.20866467D-01
 -0.18588574D-01 -0.92314787D-02 -0.14861900D-02 -0.15680182D-04 -0.77488555D-05
 -0.25848885D-03 -0.90078188D-03 -0.32438614D-02 -0.71506888D-02 -0.10065862D-01
  0.48017442D-03  0.13172928D-01  0.77890701D-02  0.88338265D-07  0.10699921D-05
  0.22313557D-05  0.63991398D-05  0.33229842D-06 -0.27596194D-04 -0.71303266D-04
  0.58094545D-04  0.35926440D-03 -0.20152593D-03 -0.17217856D-03 -0.15515917D-08
 -0.20438093D-08 -0.22546416D-08 -0.18726564D-08 -0.99443249D-09 -0.25656878D-09
 -0.38510445D+01 -0.50727265D+01 -0.55960114D+01 -0.46479256D+01 -0.24681775D+01
 -0.63680269D+00 -0.67762359D+01 -0.89258879D+01 -0.98466516D+01 -0.81784151D+01
 -0.43429654D+01 -0.11205078D+01  0.61486638D-13 -0.59441325D-12 -0.83818473D-12
 -0.11988259D-11  0.60706856D-14  0.10994364D-11  0.16333746D-03 -0.15790415D-02
 -0.22266133D-02 -0.31846461D-02  0.16126599D-04  0.29206208D-02  0.31580783D-03
 -0.30530269D-02 -0.43050866D-02 -0.61574127D-02  0.31180271D-04  0.56469282D-02
 -0.10257218D-10 -0.24767956D-01 -0.43874739D-01  0.70567503D-13  0.15097554D-03
  0.19097013D-03  0.37922646D-14  0.11171016D-04  0.62401771D-05  0.21051021D-04
  0.39289934D-03 -0.41395036D-03  0.91157026D-13 -0.84764535D-13  0.36673111D-03
  0.66485347D-05 -0.25010526D-03  0.24345672D-03 -0.81712834D-13  0.50291036D-13
 -0.42666777D-03 -0.32141451D-06  0.37734046D-04 -0.37412632D-04  0.22822478D-14
 -0.79348673D-16  0.17616811D-04  0.89887535D-15  0.31027029D-04  0.99009142D-05
  0.61469274D-14 -0.48601529D-04  0.82942454D-05 -0.88435534D-14 -0.44479558D-04
 -0.37996988D-04  0.47504810D-14 -0.59975049D-14  0.44332274D-04 -0.15100764D-04
  0.12179680D-13 -0.14926606D-04 -0.37736546D-04  0.58128350D-14 -0.11807021D-03
  0.83038838D-04 -0.24909856D-13
MO    3     MO 0.0        OCC NO =    2.0000334  ORB. ENERGY =    0.000000
 -0.15822151D-10 -0.29489889D-10 -0.50004251D-10 -0.75676116D-10 -0.94399990D-10
 -0.81009236D-10 -0.31022234D-10 -0.18803687D-14 -0.20175122D-13 -0.74369300D-13
 -0.21745147D-12 -0.26203960D-12  0.31565446D-12 -0.14407373D-11 -0.69947573D-13
 -0.12300668D-13  0.36357522D-04  0.35254566D-04  0.23782522D-04 -0.34869650D-12
 -0.33811831D-12 -0.22809261D-12  0.35515737D-12  0.34438318D-12  0.23231886D-12
  0.10621464D-04 -0.17578856D-12 -0.14483671D-13  0.42625088D-05 -0.98428340D-13
  0.48269799D-13  0.18898562D-06 -0.58877572D-14 -0.31604435D-15  0.39536832D-13
  0.13994957D-13 -0.53531789D-13 -0.11380086D-03  0.68277580D-05 -0.26561468D-13
 -0.55984430D-14 -0.60680756D-14  0.11666519D-13 -0.33715641D-04 -0.34563669D-05
 -0.96200383D-14  0.31777370D-14 -0.15881244D-14 -0.15896126D-14  0.15780424D-03
 -0.14548392D-05  0.99620120D-14  0.51328249D-06 -0.18296065D-13  0.10090328D-13
  0.24609570D-05  0.13413554D-13 -0.71030783D-14 -0.40008045D-05  0.41474639D-13
 -0.23167907D-13  0.77645395D-03 -0.31167886D-06 -0.22035424D-14 -0.77014480D-14
 -0.13434858D-05 -0.24742988D-13  0.57858996D-14  0.22785224D-05  0.31353615D-13
  0.17318444D-13 -0.24213133D-03 -0.10970123D-11 -0.20450519D-11 -0.34564163D-11
 -0.51956383D-11 -0.63819111D-11 -0.53861078D-11 -0.20253172D-11  0.48422926D-15
  0.36193137D-14  0.13526202D-13  0.37735997D-13  0.50555832D-13 -0.59697011D-13
 -0.18966961D-12  0.35263145D-12  0.46530645D-13 -0.45612590D-04 -0.42764703D-04
 -0.30451016D-04  0.33852976D-12  0.31739317D-12  0.22600284D-12  0.24093286D-12
  0.22588987D-12  0.16084705D-12 -0.81694082D-05 -0.30301770D-13  0.31931525D-14
 -0.47836470D-06 -0.55582105D-13 -0.61779741D-13 -0.61949800D-07 -0.54568012D-15
 -0.15585416D-14  0.23890811D-13  0.17435536D-13 -0.41326347D-13 -0.11941989D-02
  0.11571807D-04 -0.64939023D-14 -0.54431161D-13  0.41253387D-13  0.13177775D-13
  0.40967659D-04 -0.63089252D-05  0.69545788D-13 -0.61145859D-14  0.63587350D-14
 -0.24414908D-15 -0.72249917D-04 -0.86052186D-07  0.19025361D-13  0.15692224D-05
  0.31200482D-13  0.17870566D-13 -0.91581572D-06  0.57238936D-14 -0.12282251D-13
 -0.37918516D-05 -0.99325339D-13 -0.41329448D-13  0.34661823D-03 -0.54466455D-06
 -0.31551085D-13  0.48000411D-16  0.99175376D-06  0.11013662D-13  0.95641771D-14
  0.64223988D-06  0.83639594D-13 -0.97081783D-14 -0.35075336D-03 -0.51326320D-11
 -0.96026068D-11 -0.16591175D-10 -0.26896244D-10 -0.40844527D-10 -0.56770050D-10
 -0.67495239D-10 -0.60127104D-10 -0.29860391D-10 -0.48072704D-11 -0.50719542D-13
  0.62833243D-13  0.20960118D-11  0.73041815D-11  0.26303540D-10  0.57982881D-10
  0.81621182D-10 -0.38935964D-11 -0.10681549D-09 -0.63159331D-10  0.17186384D-14
  0.20816908D-13  0.43411468D-13  0.12449653D-12  0.64649316D-14 -0.53688943D-12
 -0.13872192D-11  0.11302409D-11 -0.39221137D-11 -0.16228041D-12 -0.54245319D-13
 -0.81939632D+01 -0.10793366D+02 -0.11906773D+02 -0.98895070D+01 -0.52516026D+01
 -0.13549409D+01  0.45259653D-09  0.59617551D-09  0.65767491D-09  0.54625050D-09
  0.29007418D-09  0.74840653D-10  0.10477524D-08  0.13801350D-08  0.15225049D-08
  0.12645596D-08  0.67151622D-09  0.17325469D-09  0.35735994D-03 -0.34547260D-02
 -0.48715243D-02 -0.69675684D-02  0.35282786D-04  0.63899174D-02 -0.11314370D-13
  0.10938005D-12  0.15423728D-12  0.22060011D-12 -0.11170879D-14 -0.20231111D-12
 -0.47079021D-13  0.45512969D-12  0.64178037D-12  0.91791570D-12 -0.46481959D-14
 -0.84181527D-12 -0.53531473D-01  0.36399824D-11  0.72062445D-11  0.42361649D-03
 -0.61514999D-13 -0.11406040D-12  0.15269059D-04 -0.13109081D-14 -0.31025618D-14
 -0.23625563D-13 -0.57583503D-13  0.81209065D-13 -0.90392575D-03 -0.50486656D-03
  0.71673223D-13  0.48970525D-13 -0.26286916D-14 -0.46341833D-13  0.46365279D-03
  0.30979543D-03 -0.13480517D-12  0.41837305D-14 -0.34550865D-14 -0.72864399D-15
 -0.21714544D-04 -0.36694566D-04 -0.15106837D-13 -0.22048605D-04 -0.56069580D-14
 -0.61229271D-15 -0.43109774D-04  0.20166048D-13  0.12170590D-13  0.10925559D-03
 -0.33451744D-14 -0.10333712D-13 -0.11670724D-04 -0.17259396D-04  0.60178249D-14
  0.57427233D-16  0.90029619D-04  0.13157102D-13  0.14012092D-13 -0.38251430D-04
 -0.31210577D-13 -0.14184374D-13  0.14384604D-03  0.52301091D-10  0.97849760D-10
  0.16906268D-09  0.27407047D-09  0.41620231D-09  0.57848205D-09  0.68777084D-09
  0.61269016D-09  0.30427489D-09  0.48985683D-10  0.51682789D-12  0.25121716D-13
  0.83801841D-12  0.29203264D-11  0.10516568D-10  0.23182466D-10  0.32633430D-10
 -0.15567209D-11 -0.42706510D-10 -0.25252092D-10  0.60134663D-15  0.72837763D-14
  0.15189547D-13  0.43560978D-13  0.22620609D-14 -0.18785606D-12 -0.48538399D-12
  0.39546802D-12 -0.16313014D-11 -0.15265275D-15 -0.28086593D-13  0.82344572D+01
  0.10846706D+02  0.11965615D+02  0.99383802D+01  0.52775557D+01  0.13616369D+01
 -0.70543338D-09 -0.92922078D-09 -0.10250760D-08 -0.85140586D-09 -0.45212014D-09
 -0.11664936D-09 -0.79875078D-09 -0.10521416D-08 -0.11606769D-08 -0.96403306D-09
 -0.51192830D-09 -0.13208018D-09 -0.35951351D-03  0.34755453D-02  0.49008816D-02
  0.70095572D-02 -0.35495411D-04 -0.64284251D-02  0.32271860D-13 -0.31198358D-12
 -0.43992941D-12 -0.62921544D-12  0.31862584D-14  0.57704990D-12  0.39989449D-13
 -0.38659226D-12 -0.54513544D-12 -0.77968789D-12  0.39482297D-14  0.71504733D-12
  0.53817452D-01 -0.46608517D-11 -0.51182202D-11 -0.42441791D-03  0.74463922D-13
  0.45183848D-13 -0.15134206D-04  0.20955856D-14  0.11615772D-14  0.87264074D-14
  0.75819814D-13 -0.84546221D-13 -0.90736979D-03  0.51087576D-03  0.10563501D-12
  0.10318224D-14 -0.64525662D-13  0.63493839D-13  0.47271097D-03 -0.31794563D-03
 -0.32460402D-13  0.39012873D-14 -0.42097646D-14  0.30847737D-15 -0.21592552D-04
  0.36835831D-04  0.47683927D-14  0.22906203D-04 -0.34847851D-15  0.24407322D-14
  0.40745535D-04 -0.20071892D-14 -0.10012582D-13 -0.10946414D-03  0.30526247D-14
  0.26903858D-14 -0.93343117D-05  0.17665932D-04  0.10769413D-13  0.39627655D-14
 -0.90713613D-04 -0.26414541D-14 -0.34086787D-14  0.37715816D-04 -0.29666785D-13
 -0.84796177D-14  0.14716202D-03
MO    4     MO 0.0        OCC NO =    2.0000300  ORB. ENERGY =    0.000000
 -0.46337288D-11 -0.86365086D-11 -0.14644414D-10 -0.22162763D-10 -0.27646300D-10
 -0.23724639D-10 -0.90852763D-11 -0.62749718D-15 -0.67326329D-14 -0.24817753D-13
 -0.72565653D-13 -0.87445140D-13  0.10533694D-12 -0.41886604D-12 -0.67705687D-13
 -0.69454959D-13 -0.51914250D-02 -0.50339360D-02 -0.33958635D-02  0.46075971D-12
  0.44678193D-12  0.30139645D-12  0.11000330D-12  0.10666620D-12  0.71956387D-13
 -0.14777747D-02  0.16434310D-12 -0.10837437D-14 -0.30833605D-03  0.10964897D-12
 -0.46359597D-13  0.14471912D-04  0.19111297D-13  0.50640197D-15  0.22346940D-14
  0.33858089D-13 -0.36092783D-13 -0.15535449D-05 -0.38173202D-03  0.12170022D-12
  0.19048797D-13 -0.29774247D-13  0.10725450D-13  0.70591810D-06  0.17251892D-03
 -0.45972494D-13 -0.90609515D-14  0.17359076D-14  0.73250439D-14 -0.67212002D-07
  0.26544252D-04 -0.15174760D-13  0.63565601D-04  0.19321818D-13 -0.17023488D-13
 -0.33201213D-03  0.20118494D-14  0.21518720D-13  0.14131533D-03 -0.59977302D-13
  0.29551743D-13 -0.90443753D-06 -0.26958628D-04 -0.61107764D-14  0.68835807D-15
  0.13815117D-03  0.82824170D-14 -0.82210684D-14 -0.57275289D-04  0.10049912D-13
  0.61559941D-14 -0.11757899D-05  0.56655735D-11  0.10561770D-10  0.17850831D-10
  0.26833128D-10  0.32959692D-10  0.27816817D-10  0.10459850D-10  0.77672601D-15
  0.58055457D-14  0.21696650D-13  0.60530274D-13  0.81093880D-13 -0.95756751D-13
  0.48118910D-12  0.46572135D-13  0.11305978D-13  0.36706778D-02  0.34414938D-02
  0.24505486D-02 -0.43165033D-12 -0.40469962D-12 -0.28817024D-12 -0.37932500D-12
 -0.35564129D-12 -0.25323779D-12  0.83850108D-03  0.18803713D-13 -0.10234333D-12
  0.87786414D-04  0.10427250D-12  0.33678541D-13 -0.15947844D-04 -0.10147448D-13
  0.20420709D-14  0.87635729D-14 -0.14271299D-12  0.13394942D-12  0.45499587D-05
 -0.10250076D-02 -0.51032215D-13  0.29904294D-14  0.22023103D-14 -0.51927397D-14
 -0.37472844D-05  0.87475394D-04 -0.20839643D-12  0.62998753D-15 -0.21909260D-13
  0.21279272D-13 -0.16769833D-06 -0.41655772D-04 -0.44214057D-13 -0.85011775D-04
 -0.31679321D-14 -0.15154913D-13  0.13190447D-03 -0.10258340D-14  0.17281536D-13