 Entering Gaussian System, Link 0=/home/bruns/programas/chemistry/gaussian/g09/g09
 Input=GAUSSIAN.com
 Output=GAUSSIAN.log
 Initial command:
 /home/bruns/programas/chemistry/gaussian/g09/l1.exe /home/bruns/programas/chemistry/gaussian/work/Gau-53254.inp -scrdir=/home/bruns/programas/chemistry/gaussian/work/
 Entering Link 1 = /home/bruns/programas/chemistry/gaussian/g09/l1.exe PID=     53256.
  
 Copyright (c) 1988,1990,1992,1993,1995,1998,2003,2009,2010,
            Gaussian, Inc.  All Rights Reserved.
  
 This is part of the Gaussian(R) 09 program.  It is based on
 the Gaussian(R) 03 system (copyright 2003, Gaussian, Inc.),
 the Gaussian(R) 98 system (copyright 1998, Gaussian, Inc.),
 the Gaussian(R) 94 system (copyright 1995, Gaussian, Inc.),
 the Gaussian 92(TM) system (copyright 1992, Gaussian, Inc.),
 the Gaussian 90(TM) system (copyright 1990, Gaussian, Inc.),
 the Gaussian 88(TM) system (copyright 1988, Gaussian, Inc.),
 the Gaussian 86(TM) system (copyright 1986, Carnegie Mellon
 University), and the Gaussian 82(TM) system (copyright 1983,
 Carnegie Mellon University). Gaussian is a federally registered
 trademark of Gaussian, Inc.
  
 This software contains proprietary and confidential information,
 including trade secrets, belonging to Gaussian, Inc.
  
 This software is provided under written license and may be
 used, copied, transmitted, or stored only in accord with that
 written license.
  
 The following legend is applicable only to US Government
 contracts under FAR:
  
                    RESTRICTED RIGHTS LEGEND
  
 Use, reproduction and disclosure by the US Government is
 subject to restrictions as set forth in subparagraphs (a)
 and (c) of the Commercial Computer Software - Restricted
 Rights clause in FAR 52.227-19.
  
 Gaussian, Inc.
 340 Quinnipiac St., Bldg. 40, Wallingford CT 06492
  
  
 ---------------------------------------------------------------
 Warning -- This program may not be used in any manner that
 competes with the business of Gaussian, Inc. or will provide
 assistance to any competitor of Gaussian, Inc.  The licensee
 of this program is prohibited from giving any competitor of
 Gaussian, Inc. access to this program.  By using this program,
 the user acknowledges that Gaussian, Inc. is engaged in the
 business of creating and licensing software in the field of
 computational chemistry and represents and warrants to the
 licensee that it is not a competitor of Gaussian, Inc. and that
 it will not use this program in any manner prohibited above.
 ---------------------------------------------------------------
  

 Cite this work as:
 Gaussian 09, Revision B.01,
 M. J. Frisch, G. W. Trucks, H. B. Schlegel, G. E. Scuseria, 
 M. A. Robb, J. R. Cheeseman, G. Scalmani, V. Barone, B. Mennucci, 
 G. A. Petersson, H. Nakatsuji, M. Caricato, X. Li, H. P. Hratchian, 
 A. F. Izmaylov, J. Bloino, G. Zheng, J. L. Sonnenberg, M. Hada, 
 M. Ehara, K. Toyota, R. Fukuda, J. Hasegawa, M. Ishida, T. Nakajima, 
 Y. Honda, O. Kitao, H. Nakai, T. Vreven, J. A. Montgomery, Jr., 
 J. E. Peralta, F. Ogliaro, M. Bearpark, J. J. Heyd, E. Brothers, 
 K. N. Kudin, V. N. Staroverov, T. Keith, R. Kobayashi, J. Normand, 
 K. Raghavachari, A. Rendell, J. C. Burant, S. S. Iyengar, J. Tomasi, 
 M. Cossi, N. Rega, J. M. Millam, M. Klene, J. E. Knox, J. B. Cross, 
 V. Bakken, C. Adamo, J. Jaramillo, R. Gomperts, R. E. Stratmann, 
 O. Yazyev, A. J. Austin, R. Cammi, C. Pomelli, J. W. Ochterski, 
 R. L. Martin, K. Morokuma, V. G. Zakrzewski, G. A. Voth, 
 P. Salvador, J. J. Dannenberg, S. Dapprich, A. D. Daniels, 
 O. Farkas, J. B. Foresman, J. V. Ortiz, J. Cioslowski, 
 and D. J. Fox, Gaussian, Inc., Wallingford CT, 2010.
 
 ******************************************
 Gaussian 09:  EM64L-G09RevB.01 12-Aug-2010
                27-Nov-2021 
 ******************************************
 %nproc=8
 Will use up to    8 processors via shared memory.
 %mem=8GB
 -----------------------------------------------------
 # qcisd/aug-cc-pvtz nosymm density=current output=wfn
 -----------------------------------------------------
 1/30=1,38=1/1;
 2/12=2,15=1,17=6,18=5,40=1/2;
 3/5=16,6=1,7=10,11=9,16=1,25=1,30=1,71=1/1,2,3;
 4//1;
 5/5=2,38=5/2;
 8/6=4,9=120000,10=1/1,4;
 9/5=8,15=1/13;
 11/28=-7,31=1,32=3,42=3/11;
 10/5=6,13=10,31=1/2;
 6/7=2,8=2,9=2,10=2,22=-1,31=1/1;
 99/5=1,6=1100,9=1/99;
 ------------------
 cl2co-wavefunction
 ------------------
 Symbolic Z-matrix:
 Charge =  0 Multiplicity = 1
 O                     0.        0.        0.6834 
 C                     0.        0.       -0.49469 
 Cl                    0.       -1.44687  -1.46981 
 Cl                    0.        1.43687  -1.46981 
 
                          Input orientation:                          
 ---------------------------------------------------------------------
 Center     Atomic      Atomic             Coordinates (Angstroms)
 Number     Number       Type             X           Y           Z
 ---------------------------------------------------------------------
      1          8           0        0.000000    0.000000    0.683397
      2          6           0        0.000000    0.000000   -0.494687
      3         17           0        0.000000   -1.446870   -1.469805
      4         17           0        0.000000    1.436870   -1.469805
 ---------------------------------------------------------------------
                    Distance matrix (angstroms):
                    1          2          3          4
     1  O    0.000000
     2  C    1.178084   0.000000
     3  Cl   2.594169   1.744789   0.000000
     4  Cl   2.588605   1.736505   2.883740   0.000000
 Symmetry turned off by external request.
 Stoichiometry    CCl2O
 Framework group  CS[SG(CCl2O)]
 Deg. of freedom     5
 Full point group                 CS      NOp   2
 Rotational constants (GHZ):      7.9179748      3.4757707      2.4154537
 Standard basis: Aug-CC-pVTZ (5D, 7F)
 Integral buffers will be    131072 words long.
 Raffenetti 1 integral format.
 Two-electron integral symmetry is turned off.
   192 basis functions,   372 primitive gaussians,   228 cartesian basis functions
    24 alpha electrons       24 beta electrons
       nuclear repulsion energy       192.1563584222 Hartrees.
 NAtoms=    4 NActive=    4 NUniq=    4 SFac= 1.00D+00 NAtFMM=   50 NAOKFM=F Big=F
 One-electron integrals computed using PRISM.
 NBasis=   192 RedAO= T  NBF=   192
 NBsUse=   192 1.00D-06 NBFU=   192
 Harris functional with IExCor=  205 diagonalized for initial guess.
 ExpMin= 3.57D-02 ExpMax= 4.56D+05 ExpMxC= 1.44D+03 IAcc=3 IRadAn=         0 AccDes= 0.00D+00
 HarFok:  IExCor=  205 AccDes= 0.00D+00 IRadAn=         0 IDoV= 1
 ScaDFX=  1.000000  1.000000  1.000000  1.000000
 FoFCou: FMM=F IPFlag=           0 FMFlag=      100000 FMFlg1=           0
         NFxFlg=           0 DoJE=T BraDBF=F KetDBF=T FulRan=T
         Omega=  0.000000  0.000000  1.000000  0.000000  0.000000 ICntrl=     500 IOpCl=  0
         NMat0=    1 NMatS0=    1 NMatT0=    0 NMatD0=    1 NMtDS0=    0 NMtDT0=    0
         I1Cent=           4 NGrid=           0.
 Symmetry not used in FoFCou.
 Requested convergence on RMS density matrix=1.00D-08 within 128 cycles.
 Requested convergence on MAX density matrix=1.00D-06.
 Requested convergence on             energy=1.00D-06.
 No special actions if energy rises.
 Keep R1 ints in memory in canonical form, NReq=346956363.
 SCF Done:  E(RHF) =  -1031.80281047     A.U. after   12 cycles
             Convg  =    0.5106D-08             -V/T =  2.0003
 ExpMin= 3.57D-02 ExpMax= 4.56D+05 ExpMxC= 1.44D+03 IAcc=3 IRadAn=         5 AccDes= 0.00D+00
 HarFok:  IExCor=  205 AccDes= 0.00D+00 IRadAn=         5 IDoV=-2
 ScaDFX=  1.000000  1.000000  1.000000  1.000000
 Range of M.O.s used for correlation:    13   192
 NBasis=   192 NAE=    24 NBE=    24 NFC=    12 NFV=     0
 NROrb=    180 NOA=    12 NOB=    12 NVA=   168 NVB=   168

 **** Warning!!: The largest alpha MO coefficient is  0.28981918D+02

 Semi-Direct transformation.
 ModeAB=           2 MOrb=            12 LenV=    1072714239
 LASXX=     33405819 LTotXX=    33405819 LenRXX=    33405819
 LTotAB=    33954012 MaxLAS=    56388960 LenRXY=    56388960
 NonZer=    66811638 LenScr=   100987392 LnRSAI=           0
 LnScr1=           0 LExtra=           0 Total=    190782171
 MaxDsk=          -1 SrtSym=           F ITran=            4
 JobTyp=0 Pass  1:  I=   1 to  12.
 (rs|ai) integrals will be sorted in core.
 Spin components of T(2) and E(2):
     alpha-alpha T2 =       0.3521277525D-01 E2=     -0.1018238576D+00
     alpha-beta  T2 =       0.1831939688D+00 E2=     -0.5756903143D+00
     beta-beta   T2 =       0.3521277525D-01 E2=     -0.1018238576D+00
 ANorm=    0.1119651517D+01
 E2 =    -0.7793380295D+00 EUMP2 =    -0.10325821485012D+04
 R2 and R3 integrals will be kept in memory, NReq=   687553722.
 Iterations=  50 Convergence= 0.100D-07
 Iteration Nr.   1
 **********************
 DD1Dir will call FoFMem   1 times, MxPair=       156
 NAB=    78 NAA=     0 NBB=     0.
 MP4(R+Q)=  0.22489525D-01
 E3=       -0.19049903D-01        EUMP3=      -0.10326011984D+04
 E4(DQ)=    0.28602634D-02        UMP4(DQ)=   -0.10325983381D+04
 E4(SDQ)=  -0.60932941D-02        UMP4(SDQ)=  -0.10326072917D+04
 DE(Corr)= -0.77589841     E(Corr)=     -1032.5787089    
 NORM(A)=   0.11212234D+01
 Iteration Nr.   2
 **********************
 DD1Dir will call FoFMem   1 times, MxPair=       156
 NAB=    78 NAA=     0 NBB=     0.
 DE(Corr)= -0.80155398     E(CORR)=     -1032.6043645     Delta=-2.57D-02
 NORM(A)=   0.11305564D+01
 Iteration Nr.   3
 **********************
 DD1Dir will call FoFMem   1 times, MxPair=       156
 NAB=    78 NAA=     0 NBB=     0.
 DE(Corr)= -0.79996076     E(CORR)=     -1032.6027712     Delta= 1.59D-03
 NORM(A)=   0.11331462D+01
 Iteration Nr.   4
 **********************
 DD1Dir will call FoFMem   1 times, MxPair=       156
 NAB=    78 NAA=     0 NBB=     0.
 DE(Corr)= -0.80238045     E(CORR)=     -1032.6051909     Delta=-2.42D-03
 NORM(A)=   0.11341518D+01
 Iteration Nr.   5
 **********************
 DD1Dir will call FoFMem   1 times, MxPair=       156
 NAB=    78 NAA=     0 NBB=     0.
 DE(Corr)= -0.80269612     E(CORR)=     -1032.6055066     Delta=-3.16D-04
 NORM(A)=   0.11345392D+01
 Iteration Nr.   6
 **********************
 DD1Dir will call FoFMem   1 times, MxPair=       156
 NAB=    78 NAA=     0 NBB=     0.
 DE(Corr)= -0.80274640     E(CORR)=     -1032.6055569     Delta=-5.03D-05
 NORM(A)=   0.11346098D+01
 Iteration Nr.   7
 **********************
 DD1Dir will call FoFMem   1 times, MxPair=       156
 NAB=    78 NAA=     0 NBB=     0.
 DE(Corr)= -0.80275545     E(CORR)=     -1032.6055659     Delta=-9.05D-06
 NORM(A)=   0.11346108D+01
 Iteration Nr.   8
 **********************
 DD1Dir will call FoFMem   1 times, MxPair=       156
 NAB=    78 NAA=     0 NBB=     0.
 DE(Corr)= -0.80275504     E(CORR)=     -1032.6055655     Delta= 4.05D-07
 NORM(A)=   0.11346188D+01
 Iteration Nr.   9
 **********************
 DD1Dir will call FoFMem   1 times, MxPair=       156
 NAB=    78 NAA=     0 NBB=     0.
 DE(Corr)= -0.80275377     E(CORR)=     -1032.6055642     Delta= 1.27D-06
 NORM(A)=   0.11346183D+01
 Iteration Nr.  10
 **********************
 DD1Dir will call FoFMem   1 times, MxPair=       156
 NAB=    78 NAA=     0 NBB=     0.
 DE(Corr)= -0.80275496     E(CORR)=     -1032.6055654     Delta=-1.19D-06
 NORM(A)=   0.11346199D+01
 Iteration Nr.  11
 **********************
 DD1Dir will call FoFMem   1 times, MxPair=       156
 NAB=    78 NAA=     0 NBB=     0.
 DE(Corr)= -0.80275576     E(CORR)=     -1032.6055662     Delta=-7.97D-07
 NORM(A)=   0.11346210D+01
 Iteration Nr.  12
 **********************
 DD1Dir will call FoFMem   1 times, MxPair=       156
 NAB=    78 NAA=     0 NBB=     0.
 DE(Corr)= -0.80275601     E(CORR)=     -1032.6055665     Delta=-2.52D-07
 NORM(A)=   0.11346217D+01
 Iteration Nr.  13
 **********************
 DD1Dir will call FoFMem   1 times, MxPair=       156
 NAB=    78 NAA=     0 NBB=     0.
 DE(Corr)= -0.80275633     E(CORR)=     -1032.6055668     Delta=-3.19D-07
 NORM(A)=   0.11346221D+01
 Iteration Nr.  14
 **********************
 DD1Dir will call FoFMem   1 times, MxPair=       156
 NAB=    78 NAA=     0 NBB=     0.
 DE(Corr)= -0.80275640     E(CORR)=     -1032.6055669     Delta=-6.60D-08
 NORM(A)=   0.11346223D+01
 Iteration Nr.  15
 **********************
 DD1Dir will call FoFMem   1 times, MxPair=       156
 NAB=    78 NAA=     0 NBB=     0.
 DE(Corr)= -0.80275644     E(CORR)=     -1032.6055669     Delta=-4.65D-08
 NORM(A)=   0.11346224D+01
 Iteration Nr.  16
 **********************
 DD1Dir will call FoFMem   1 times, MxPair=       156
 NAB=    78 NAA=     0 NBB=     0.
 DE(Corr)= -0.80275646     E(CORR)=     -1032.6055669     Delta=-1.58D-08
 NORM(A)=   0.11346224D+01
 Iteration Nr.  17
 **********************
 DD1Dir will call FoFMem   1 times, MxPair=       156
 NAB=    78 NAA=     0 NBB=     0.
 DE(Corr)= -0.80275646     E(CORR)=     -1032.6055669     Delta= 1.30D-09
 NORM(A)=   0.11346224D+01
 Iteration Nr.  18
 **********************
 DD1Dir will call FoFMem   1 times, MxPair=       156
 NAB=    78 NAA=     0 NBB=     0.
 DE(Corr)= -0.80275646     E(CORR)=     -1032.6055669     Delta=-6.90D-10
 NORM(A)=   0.11346224D+01
 Iteration Nr.  19
 **********************
 DD1Dir will call FoFMem   1 times, MxPair=       156
 NAB=    78 NAA=     0 NBB=     0.
 DE(Corr)= -0.80275646     E(CORR)=     -1032.6055669     Delta= 3.24D-10
 NORM(A)=   0.11346224D+01
 Largest amplitude= 3.36D-02

 Z-AMPLITUDE ITERATIONS

 Iteration Nr.   1
 **********************
 DD1Dir will call FoFMem   1 times, MxPair=       156
 NAB=    78 NAA=     0 NBB=     0.
 DE(Z)  -0.77477215D+00          E(Z)=    -0.10325775826D+04
 NORM(A)=   0.11345904D+01
 Iteration Nr.   2
 **********************
 DD1Dir will call FoFMem   1 times, MxPair=       156
 NAB=    78 NAA=     0 NBB=     0.
 DE(Z)  -0.77477109D+00          E(Z)=    -0.10325775816D+04
 NORM(A)=   0.11345565D+01
 Iteration Nr.   3
 **********************
 DD1Dir will call FoFMem   1 times, MxPair=       156
 NAB=    78 NAA=     0 NBB=     0.
 DE(Z)  -0.77477016D+00          E(Z)=    -0.10325775806D+04
 NORM(A)=   0.11345590D+01
 Iteration Nr.   4
 **********************
 DD1Dir will call FoFMem   1 times, MxPair=       156
 NAB=    78 NAA=     0 NBB=     0.
 DE(Z)  -0.77477014D+00          E(Z)=    -0.10325775806D+04
 NORM(A)=   0.11347308D+01
 Iteration Nr.   5
 **********************
 DD1Dir will call FoFMem   1 times, MxPair=       156
 NAB=    78 NAA=     0 NBB=     0.
 DE(Z)  -0.77477569D+00          E(Z)=    -0.10325775862D+04
 NORM(A)=   0.11249845D+01
 Iteration Nr.   6
 **********************
 DD1Dir will call FoFMem   1 times, MxPair=       156
 NAB=    78 NAA=     0 NBB=     0.
 DE(Z)  -0.77445346D+00          E(Z)=    -0.10325772639D+04
 NORM(A)=   0.11249861D+01
 Iteration Nr.   7
 **********************
 DD1Dir will call FoFMem   1 times, MxPair=       156
 NAB=    78 NAA=     0 NBB=     0.
 DE(Z)  -0.77445308D+00          E(Z)=    -0.10325772636D+04
 NORM(A)=   0.11249861D+01
 Iteration Nr.   8
 **********************
 DD1Dir will call FoFMem   1 times, MxPair=       156
 NAB=    78 NAA=     0 NBB=     0.
 DE(Z)  -0.77445295D+00          E(Z)=    -0.10325772634D+04
 NORM(A)=   0.11249867D+01
 Iteration Nr.   9
 **********************
 DD1Dir will call FoFMem   1 times, MxPair=       156
 NAB=    78 NAA=     0 NBB=     0.
 DE(Z)  -0.77445332D+00          E(Z)=    -0.10325772638D+04
 NORM(A)=   0.11249870D+01
 Iteration Nr.  10
 **********************
 DD1Dir will call FoFMem   1 times, MxPair=       156
 NAB=    78 NAA=     0 NBB=     0.
 DE(Z)  -0.77445315D+00          E(Z)=    -0.10325772636D+04
 NORM(A)=   0.11249871D+01
 Iteration Nr.  11
 **********************
 DD1Dir will call FoFMem   1 times, MxPair=       156
 NAB=    78 NAA=     0 NBB=     0.
 DE(Z)  -0.77445325D+00          E(Z)=    -0.10325772637D+04
 NORM(A)=   0.11249872D+01
 Iteration Nr.  12
 **********************
 DD1Dir will call FoFMem   1 times, MxPair=       156
 NAB=    78 NAA=     0 NBB=     0.
 DE(Z)  -0.77445323D+00          E(Z)=    -0.10325772637D+04
 NORM(A)=   0.11249872D+01
 Iteration Nr.  13
 **********************
 DD1Dir will call FoFMem   1 times, MxPair=       156
 NAB=    78 NAA=     0 NBB=     0.
 DE(Z)  -0.77445323D+00          E(Z)=    -0.10325772637D+04
 NORM(A)=   0.11249872D+01
 Iteration Nr.  14
 **********************
 DD1Dir will call FoFMem   1 times, MxPair=       156
 NAB=    78 NAA=     0 NBB=     0.
 DE(Z)  -0.77445323D+00          E(Z)=    -0.10325772637D+04
 NORM(A)=   0.11249872D+01
 Discarding MO integrals.
          Differentiating once with respect to electric field.
                with respect to dipole field.
          Electric field/nuclear overlap derivatives assumed to be zero.
          Keep R1 ints in memory in canonical form, NReq=342715808.
          There are     1 degrees of freedom in the 1st order CPHF.  IDoFFX=0.
 LinEq1:  Iter=  0 NonCon=     1 RMS=2.34D-03 Max=5.66D-02
 AX will form     1 AO Fock derivatives at one time.
 LinEq1:  Iter=  1 NonCon=     1 RMS=8.27D-04 Max=1.86D-02
 LinEq1:  Iter=  2 NonCon=     1 RMS=3.09D-04 Max=5.58D-03
 LinEq1:  Iter=  3 NonCon=     1 RMS=1.27D-04 Max=3.27D-03
 LinEq1:  Iter=  4 NonCon=     1 RMS=5.08D-05 Max=1.23D-03
 LinEq1:  Iter=  5 NonCon=     1 RMS=1.63D-05 Max=3.60D-04
 LinEq1:  Iter=  6 NonCon=     1 RMS=4.15D-06 Max=5.62D-05
 LinEq1:  Iter=  7 NonCon=     1 RMS=9.88D-07 Max=1.15D-05
 LinEq1:  Iter=  8 NonCon=     1 RMS=2.10D-07 Max=3.15D-06
 LinEq1:  Iter=  9 NonCon=     1 RMS=4.75D-08 Max=8.12D-07
 LinEq1:  Iter= 10 NonCon=     1 RMS=1.20D-08 Max=2.26D-07
 LinEq1:  Iter= 11 NonCon=     1 RMS=2.51D-09 Max=3.74D-08
 LinEq1:  Iter= 12 NonCon=     1 RMS=4.60D-10 Max=1.14D-08
 LinEq1:  Iter= 13 NonCon=     1 RMS=8.26D-11 Max=1.23D-09
 LinEq1:  Iter= 14 NonCon=     0 RMS=2.00D-11 Max=3.23D-10
 Linear equations converged to 1.000D-10 1.000D-09 after    14 iterations.
 End of Minotr Frequency-dependent properties file   721 does not exist.
 End of Minotr Frequency-dependent properties file   722 does not exist.

 **********************************************************************

            Population analysis using the QCI/CC density.

 **********************************************************************

     Natural Orbital Coefficients:
                           1         2         3         4         5
     Eigenvalues --     2.00004   2.00004   2.00003   2.00003   2.00003
   1 1   O  1S         -0.00062   0.01083   0.00000   0.00000  -0.00359
   2        2S          0.00002  -0.00025   0.00000   0.00000   0.00011
   3        3S         -0.00003   0.00050   0.00000   0.00000  -0.00014
   4        4S         -0.00001   0.00083   0.00000   0.00000  -0.00014
   5        5S         -0.00013   0.00297   0.00000   0.00000  -0.00007
   6        6PX         0.00000   0.00000   0.00001  -0.00106   0.00000
   7        6PY         0.00018   0.00000   0.00000   0.00000   0.00025
   8        6PZ        -0.00002   0.00033   0.00000   0.00000   0.00002
   9        7PX         0.00000   0.00000   0.00001  -0.00158   0.00000
  10        7PY         0.00100   0.00004   0.00000   0.00000   0.00048
  11        7PZ        -0.00004   0.00063   0.00000   0.00000   0.00005
  12        8PX         0.00000   0.00000   0.00002  -0.00151   0.00000
  13        8PY         0.00365   0.00016   0.00000   0.00000   0.00154
  14        8PZ        -0.00015   0.00242   0.00000   0.00000   0.00018
  15        9PX         0.00000   0.00000   0.00000   0.00034   0.00000
  16        9PY         0.00046   0.00002   0.00000   0.00000   0.00114
  17        9PZ        -0.00001   0.00025   0.00000   0.00000  -0.00004
  18       10D 0        0.00000   0.00001   0.00000   0.00000   0.00000
  19       10D+1        0.00000   0.00000   0.00000  -0.00003   0.00000
  20       10D-1        0.00002   0.00000   0.00000   0.00000   0.00003
  21       10D+2        0.00000   0.00003   0.00000   0.00000   0.00000
  22       10D-2        0.00000   0.00000  -0.00001   0.00000   0.00000
  23       11D 0        0.00001  -0.00023   0.00000   0.00000  -0.00002
  24       11D+1        0.00000   0.00000   0.00000   0.00013   0.00000
  25       11D-1        0.00006   0.00000   0.00000   0.00000  -0.00009
  26       11D+2        0.00001  -0.00025   0.00000   0.00000   0.00001
  27       11D-2        0.00000   0.00000  -0.00002   0.00000   0.00000
  28       12D 0        0.00004  -0.00073   0.00000   0.00000  -0.00001
  29       12D+1        0.00000   0.00000  -0.00001   0.00015   0.00000
  30       12D-1       -0.00058  -0.00002   0.00000   0.00000  -0.00028
  31       12D+2       -0.00001   0.00019   0.00000   0.00000   0.00006
  32       12D-2        0.00000   0.00000   0.00083   0.00000   0.00000
  33       13F 0        0.00000   0.00001   0.00000   0.00000   0.00000
  34       13F+1        0.00000   0.00000   0.00000   0.00002   0.00000
  35       13F-1       -0.00003   0.00000   0.00000   0.00000  -0.00002
  36       13F+2        0.00000   0.00000   0.00000   0.00000   0.00000
  37       13F-2        0.00000   0.00000   0.00006   0.00000   0.00000
  38       13F+3        0.00000   0.00000   0.00000   0.00004   0.00000
  39       13F-3       -0.00004   0.00000   0.00000   0.00000   0.00000
  40       14F 0        0.00000   0.00011   0.00000   0.00000  -0.00002
  41       14F+1        0.00000   0.00000   0.00000  -0.00008   0.00000
  42       14F-1       -0.00031  -0.00001   0.00000   0.00000   0.00003
  43       14F+2       -0.00001   0.00014   0.00000   0.00000  -0.00002
  44       14F-2        0.00000   0.00000  -0.00020   0.00000   0.00000
  45       14F+3        0.00000   0.00000   0.00000  -0.00017   0.00000
  46       14F-3        0.00019   0.00001   0.00000   0.00000   0.00004
  47 2   C  1S          0.00058  -0.01166   0.00000   0.00000   0.03693
  48        2S         -0.00008   0.00144   0.00000   0.00000  -0.00075
  49        3S          0.00001  -0.00016   0.00000   0.00000   0.00135
  50        4S          0.00000  -0.00012   0.00000   0.00000   0.00164
  51        5S         -0.00007   0.00124   0.00000   0.00000   0.00013
  52        6PX         0.00000   0.00000  -0.00002   0.00171   0.00000
  53        6PY        -0.00050  -0.00001   0.00000   0.00000  -0.00071
  54        6PZ        -0.00003   0.00045   0.00000   0.00000   0.00010
  55        7PX         0.00000   0.00000  -0.00002   0.00198   0.00000
  56        7PY        -0.00032  -0.00002   0.00000   0.00000   0.00018
  57        7PZ        -0.00012   0.00196   0.00000   0.00000   0.00016
  58        8PX         0.00000   0.00000   0.00000   0.00087   0.00000
  59        8PY        -0.00072   0.00000   0.00000   0.00000   0.00243
  60        8PZ         0.00013  -0.00203   0.00000   0.00000  -0.00064
  61        9PX         0.00000   0.00000   0.00000  -0.00072   0.00000
  62        9PY         0.00040   0.00002   0.00000   0.00000  -0.00109
  63        9PZ         0.00005  -0.00098   0.00000   0.00000   0.00006
  64       10D 0        0.00002  -0.00032   0.00000   0.00000   0.00002
  65       10D+1        0.00000   0.00000   0.00000  -0.00031   0.00000
  66       10D-1       -0.00006   0.00000   0.00000   0.00000  -0.00002
  67       10D+2        0.00001  -0.00023   0.00000   0.00000  -0.00002
  68       10D-2        0.00000   0.00000  -0.00036   0.00000   0.00000
  69       11D 0       -0.00006   0.00040   0.00000   0.00000   0.00005
  70       11D+1        0.00000   0.00000  -0.00002   0.00025   0.00000
  71       11D-1       -0.00017  -0.00001   0.00000   0.00000  -0.00151
  72       11D+2       -0.00006   0.00067   0.00000   0.00000  -0.00023
  73       11D-2        0.00000   0.00000   0.00013  -0.00001   0.00000
  74       12D 0        0.00019  -0.00394   0.00000   0.00000   0.00003
  75       12D+1        0.00000   0.00000   0.00000  -0.00082   0.00000
  76       12D-1       -0.00106  -0.00007   0.00000   0.00000  -0.00221
  77       12D+2        0.00011  -0.00228   0.00000   0.00000  -0.00020
  78       12D-2        0.00000   0.00000  -0.00143   0.00000   0.00000
  79       13F 0       -0.00001   0.00018   0.00000   0.00000   0.00004
  80       13F+1        0.00000   0.00000   0.00000   0.00007   0.00000
  81       13F-1        0.00041   0.00002   0.00000   0.00000   0.00002
  82       13F+2        0.00000   0.00002   0.00000   0.00000   0.00000
  83       13F-2        0.00000   0.00000   0.00011   0.00000   0.00000
  84       13F+3        0.00000   0.00000   0.00000  -0.00009   0.00000
  85       13F-3        0.00009   0.00000   0.00000   0.00000   0.00001
  86       14F 0        0.00006  -0.00093   0.00000   0.00000  -0.00006
  87       14F+1        0.00000   0.00000   0.00000   0.00011   0.00000
  88       14F-1       -0.00404  -0.00018   0.00000   0.00000  -0.00044
  89       14F+2        0.00001  -0.00006   0.00000   0.00000   0.00001
  90       14F-2        0.00000   0.00000  -0.00122   0.00000   0.00000
  91       14F+3        0.00000   0.00000  -0.00001   0.00062   0.00000
  92       14F-3       -0.00119  -0.00006   0.00000   0.00000  -0.00041
  93 3   Cl 1S          0.00058  -0.00221   0.00000   0.00000  -0.12492
  94        2S         -0.00235   0.00783   0.00000   0.00000   0.42179
  95        3S         -0.00041   0.00014   0.00000   0.00000  -0.01246
  96        4S         -0.00015   0.00042   0.00000   0.00000   0.03267
  97        5S          0.00056  -0.00099   0.00000   0.00000  -0.00048
  98        6S          0.00075  -0.00190   0.00000   0.00000  -0.00153
  99        7PX         0.00000   0.00000  -0.69085  -0.69368   0.00000
 100        7PY         0.37708   0.36633   0.00000   0.00000  -0.22623
 101        7PZ        -0.53918  -0.62690   0.00000   0.00000  -0.16937
 102        8PX         0.00000   0.00000   0.01493   0.01343   0.00000
 103        8PY        -0.00957  -0.00783   0.00000   0.00000   0.00453
 104        8PZ         0.01319   0.01454   0.00000   0.00000   0.00355
 105        9PX         0.00000   0.00000  -0.03657  -0.03721   0.00000
 106        9PY         0.01960   0.01909   0.00000   0.00000  -0.01286
 107        9PZ        -0.02816  -0.03287   0.00000   0.00000  -0.00964
 108       10PX         0.00000   0.00000   0.00381   0.00333   0.00000
 109       10PY        -0.00306  -0.00164   0.00000   0.00000   0.00110
 110       10PZ         0.00489   0.00223   0.00000   0.00000   0.00100
 111       11PX         0.00000   0.00000   0.00056   0.00081   0.00000
 112       11PY        -0.00039  -0.00045   0.00000   0.00000   0.00014
 113       11PZ         0.00063   0.00030   0.00000   0.00000  -0.00012
 114       12D 0       -0.00042  -0.00027   0.00000   0.00000  -0.00003
 115       12D+1        0.00000   0.00000  -0.00017  -0.00015   0.00000
 116       12D-1       -0.00022  -0.00014   0.00000   0.00000   0.00008
 117       12D+2       -0.00023  -0.00014   0.00000   0.00000  -0.00003
 118       12D-2        0.00000   0.00000  -0.00029  -0.00014   0.00000
 119       13D 0        0.00187   0.00116   0.00000   0.00000   0.00024
 120       13D+1        0.00000   0.00000   0.00072   0.00060   0.00000
 121       13D-1        0.00073   0.00107   0.00000   0.00000   0.00054
 122       13D+2        0.00082   0.00068   0.00000   0.00000  -0.00026
 123       13D-2        0.00000   0.00000   0.00107   0.00097   0.00000
 124       14D 0        0.00010  -0.00075   0.00000   0.00000  -0.00003
 125       14D+1        0.00000   0.00000  -0.00043   0.00005   0.00000
 126       14D-1        0.00006  -0.00019   0.00000   0.00000   0.00020
 127       14D+2       -0.00005  -0.00046   0.00000   0.00000   0.00022
 128       14D-2        0.00000   0.00000  -0.00025  -0.00010   0.00000
 129       15F 0        0.00000   0.00002   0.00000   0.00000   0.00002
 130       15F+1        0.00000   0.00000   0.00007  -0.00004   0.00000
 131       15F-1       -0.00002   0.00003   0.00000   0.00000   0.00002
 132       15F+2       -0.00003   0.00001   0.00000   0.00000  -0.00001
 133       15F-2        0.00000   0.00000   0.00000  -0.00001   0.00000
 134       15F+3        0.00000   0.00000   0.00001  -0.00001   0.00000
 135       15F-3       -0.00002   0.00004   0.00000   0.00000  -0.00001
 136       16F 0        0.00040  -0.00011   0.00000   0.00000  -0.00013
 137       16F+1        0.00000   0.00000  -0.00015   0.00016   0.00000
 138       16F-1        0.00088   0.00054   0.00000   0.00000   0.00015
 139       16F+2        0.00008  -0.00029   0.00000   0.00000  -0.00018
 140       16F-2        0.00000   0.00000   0.00036   0.00033   0.00000
 141       16F+3        0.00000   0.00000  -0.00032  -0.00028   0.00000
 142       16F-3        0.00018   0.00019   0.00000   0.00000  -0.00003
 143 4   Cl 1S         -0.00019  -0.00248   0.00000   0.00000   0.21059
 144        2S          0.00097   0.00879   0.00000   0.00000  -0.71081
 145        3S          0.00042   0.00015   0.00000   0.00000   0.02116
 146        4S          0.00006   0.00049   0.00000   0.00000  -0.05514
 147        5S         -0.00047  -0.00107   0.00000   0.00000   0.00127
 148        6S         -0.00056  -0.00199   0.00000   0.00000   0.00158
 149        7PX         0.00000   0.00000   0.69417  -0.69035   0.00000
 150        7PY         0.41256  -0.32829   0.00000   0.00000  -0.37662
 151        7PZ         0.59786  -0.56980   0.00000   0.00000   0.25214
 152        8PX         0.00000   0.00000  -0.01502   0.01338   0.00000
 153        8PY        -0.01034   0.00690   0.00000   0.00000   0.00722
 154        8PZ        -0.01461   0.01319   0.00000   0.00000  -0.00502
 155        9PX         0.00000   0.00000   0.03676  -0.03705   0.00000
 156        9PY         0.02145  -0.01711   0.00000   0.00000  -0.02142
 157        9PZ         0.03124  -0.02989   0.00000   0.00000   0.01438
 158       10PX         0.00000   0.00000  -0.00381   0.00330   0.00000
 159       10PY        -0.00321   0.00133   0.00000   0.00000   0.00224
 160       10PZ        -0.00511   0.00173   0.00000   0.00000  -0.00163
 161       11PX         0.00000   0.00000  -0.00056   0.00080   0.00000
 162       11PY        -0.00043   0.00040   0.00000   0.00000   0.00016
 163       11PZ        -0.00064   0.00022   0.00000   0.00000   0.00006
 164       12D 0        0.00044  -0.00023   0.00000   0.00000   0.00006
 165       12D+1        0.00000   0.00000   0.00017  -0.00015   0.00000
 166       12D-1       -0.00023   0.00012   0.00000   0.00000   0.00017
 167       12D+2        0.00025  -0.00012   0.00000   0.00000   0.00007
 168       12D-2        0.00000   0.00000  -0.00030   0.00014   0.00000
 169       13D 0       -0.00201   0.00099   0.00000   0.00000  -0.00021
 170       13D+1        0.00000   0.00000  -0.00074   0.00062   0.00000
 171       13D-1        0.00084  -0.00100   0.00000   0.00000   0.00075
 172       13D+2       -0.00089   0.00061   0.00000   0.00000   0.00051
 173       13D-2        0.00000   0.00000   0.00109  -0.00098   0.00000
 174       14D 0       -0.00003  -0.00076   0.00000   0.00000   0.00006
 175       14D+1        0.00000   0.00000   0.00043   0.00005   0.00000
 176       14D-1        0.00005   0.00018   0.00000   0.00000   0.00035
 177       14D+2        0.00009  -0.00046   0.00000   0.00000  -0.00006
 178       14D-2        0.00000   0.00000  -0.00025   0.00010   0.00000
 179       15F 0       -0.00001   0.00001   0.00000   0.00000  -0.00002
 180       15F+1        0.00000   0.00000  -0.00007  -0.00004   0.00000
 181       15F-1       -0.00001  -0.00003   0.00000   0.00000   0.00002
 182       15F+2        0.00002   0.00002   0.00000   0.00000   0.00001
 183       15F-2        0.00000   0.00000   0.00000   0.00001   0.00000
 184       15F+3        0.00000   0.00000  -0.00001  -0.00002   0.00000
 185       15F-3       -0.00002  -0.00004   0.00000   0.00000  -0.00002
 186       16F 0       -0.00040  -0.00015   0.00000   0.00000   0.00015
 187       16F+1        0.00000   0.00000   0.00014   0.00016   0.00000
 188       16F-1        0.00093  -0.00046   0.00000   0.00000   0.00017
 189       16F+2       -0.00005  -0.00030   0.00000   0.00000   0.00026
 190       16F-2        0.00000   0.00000   0.00036  -0.00033   0.00000
 191       16F+3        0.00000   0.00000   0.00032  -0.00028   0.00000
 192       16F-3        0.00020  -0.00018   0.00000   0.00000  -0.00009
                           6         7         8         9        10
     Eigenvalues --     2.00003   2.00001   2.00001   2.00001   2.00000
   1 1   O  1S          0.01387   0.08087  -0.24150   0.88148   0.34232
   2        2S         -0.00043  -0.00179   0.00529  -0.01619  -0.00559
   3        3S          0.00055   0.00337  -0.01009   0.03749   0.01497
   4        4S          0.00063  -0.00023   0.00046  -0.00325  -0.00113
   5        5S          0.00030   0.00054  -0.00169  -0.00096  -0.00170
   6        6PX         0.00000   0.00000   0.00000   0.00000   0.00000
   7        6PY         0.00007  -0.00075  -0.00026   0.00000   0.00001
   8        6PZ        -0.00009  -0.00056   0.00165  -0.00375   0.00045
   9        7PX         0.00000   0.00000   0.00000   0.00000   0.00000
  10        7PY         0.00012  -0.00129  -0.00045  -0.00001   0.00001
  11        7PZ        -0.00021  -0.00040   0.00120  -0.00079   0.00314
  12        8PX         0.00000   0.00000   0.00000   0.00000   0.00000
  13        8PY         0.00037  -0.00395  -0.00136  -0.00001   0.00000
  14        8PZ        -0.00075  -0.00062   0.00193  -0.00263   0.00282
  15        9PX         0.00000   0.00000   0.00000   0.00000   0.00000
  16        9PY         0.00028  -0.00145  -0.00050  -0.00001   0.00000
  17        9PZ         0.00017  -0.00008   0.00026  -0.00032   0.00086
  18       10D 0        0.00002   0.00003  -0.00010   0.00021   0.00002
  19       10D+1        0.00000   0.00000   0.00000   0.00000   0.00000
  20       10D-1        0.00001  -0.00004  -0.00001   0.00000   0.00000
  21       10D+2        0.00000   0.00000   0.00000  -0.00007   0.00000
  22       10D-2        0.00000   0.00000   0.00000   0.00000   0.00000
  23       11D 0        0.00007   0.00003  -0.00009  -0.00036  -0.00105
  24       11D+1        0.00000   0.00000   0.00000   0.00000   0.00000
  25       11D-1       -0.00002   0.00010   0.00004   0.00000   0.00000
  26       11D+2       -0.00002  -0.00006   0.00017  -0.00003  -0.00012
  27       11D-2        0.00000   0.00000   0.00000   0.00000   0.00000
  28       12D 0        0.00007   0.00000  -0.00003   0.00075  -0.00097
  29       12D+1        0.00000   0.00000   0.00000   0.00000   0.00000
  30       12D-1       -0.00007   0.00100   0.00034   0.00000   0.00000
  31       12D+2       -0.00022  -0.00021   0.00059   0.00015  -0.00002
  32       12D-2        0.00000   0.00000   0.00000   0.00000   0.00000
  33       13F 0        0.00001   0.00003  -0.00009   0.00006  -0.00013
  34       13F+1        0.00000   0.00000   0.00000   0.00000   0.00000
  35       13F-1       -0.00001   0.00006   0.00002   0.00000   0.00000
  36       13F+2       -0.00001  -0.00001   0.00002  -0.00002  -0.00002
  37       13F-2        0.00000   0.00000   0.00000   0.00000   0.00000
  38       13F+3        0.00000   0.00000   0.00000   0.00000   0.00000
  39       13F-3        0.00000   0.00000   0.00000   0.00000   0.00000
  40       14F 0        0.00006   0.00005  -0.00014  -0.00007   0.00053
  41       14F+1        0.00000   0.00000   0.00000   0.00000   0.00000
  42       14F-1        0.00001  -0.00004  -0.00001   0.00000   0.00000
  43       14F+2        0.00009   0.00010  -0.00028  -0.00010   0.00018
  44       14F-2        0.00000   0.00000   0.00000   0.00000   0.00000
  45       14F+3        0.00000   0.00000   0.00000   0.00000   0.00000
  46       14F-3        0.00001  -0.00006  -0.00002   0.00000   0.00000
  47 2   C  1S         -0.14211  -0.19931   0.57792  -0.11032   0.74466
  48        2S          0.00286   0.00348  -0.01008   0.00097  -0.00670
  49        3S         -0.00520  -0.00777   0.02251  -0.00530   0.03229
  50        4S         -0.00623  -0.00177   0.00550   0.00568  -0.01222
  51        5S         -0.00043  -0.00079   0.00238   0.00147  -0.00227
  52        6PX         0.00000   0.00000   0.00000   0.00000   0.00000
  53        6PY        -0.00017   0.00233   0.00080   0.00001   0.00000
  54        6PZ        -0.00037  -0.00022   0.00059   0.00097  -0.00197
  55        7PX         0.00000   0.00000   0.00000   0.00000   0.00000
  56        7PY         0.00003  -0.00035  -0.00011   0.00000  -0.00003
  57        7PZ        -0.00068  -0.00040   0.00126   0.00083   0.00506
  58        8PX         0.00000   0.00000   0.00000   0.00000   0.00000
  59        8PY         0.00059  -0.00005  -0.00002   0.00000  -0.00001
  60        8PZ         0.00242   0.00057  -0.00169  -0.00103   0.00412
  61        9PX         0.00000   0.00000   0.00000   0.00000   0.00000
  62        9PY        -0.00027   0.00132   0.00046   0.00000   0.00000
  63        9PZ        -0.00027   0.00004  -0.00011   0.00017   0.00017
  64       10D 0       -0.00007  -0.00008   0.00024   0.00007   0.00071
  65       10D+1        0.00000   0.00000   0.00000   0.00000   0.00000
  66       10D-1        0.00000  -0.00011  -0.00004   0.00000   0.00000
  67       10D+2        0.00006   0.00004  -0.00011   0.00003  -0.00016
  68       10D-2        0.00000   0.00000   0.00000   0.00000   0.00000
  69       11D 0       -0.00022   0.00002   0.00000   0.00093   0.00103
  70       11D+1        0.00000   0.00000   0.00000   0.00000   0.00000
  71       11D-1       -0.00036   0.00258   0.00091   0.00001   0.00001
  72       11D+2        0.00088   0.00018  -0.00054  -0.00111   0.00328
  73       11D-2        0.00000   0.00000   0.00000   0.00000   0.00000
  74       12D 0       -0.00013  -0.00013   0.00042  -0.00006  -0.00066
  75       12D+1        0.00000   0.00000   0.00000   0.00000   0.00000
  76       12D-1       -0.00054   0.00242   0.00084   0.00001   0.00000
  77       12D+2        0.00076   0.00035  -0.00101  -0.00084   0.00113
  78       12D-2        0.00000   0.00000   0.00000   0.00000   0.00000
  79       13F 0       -0.00015  -0.00009   0.00027  -0.00014   0.00038
  80       13F+1        0.00000   0.00000   0.00000   0.00000   0.00000
  81       13F-1        0.00000  -0.00006  -0.00002   0.00000   0.00000
  82       13F+2       -0.00002   0.00004  -0.00010  -0.00008  -0.00007
  83       13F-2        0.00000   0.00000   0.00000   0.00000   0.00000
  84       13F+3        0.00000   0.00000   0.00000   0.00000   0.00000
  85       13F-3        0.00000  -0.00003  -0.00001   0.00000   0.00000
  86       14F 0        0.00022   0.00036  -0.00103   0.00088  -0.00091
  87       14F+1        0.00000   0.00000   0.00000   0.00000   0.00000
  88       14F-1       -0.00010   0.00150   0.00050   0.00000   0.00000
  89       14F+2       -0.00006   0.00021  -0.00057   0.00035  -0.00097
  90       14F-2        0.00000   0.00000   0.00000   0.00000   0.00000
  91       14F+3        0.00000   0.00000   0.00000   0.00000   0.00000
  92       14F-3       -0.00010   0.00075   0.00026   0.00000   0.00000
  93 3   Cl 1S         -0.21414  -0.07546  -0.12336  -0.03775   0.03539
  94        2S          0.72253   0.25538   0.42023   0.12878  -0.12077
  95        3S         -0.02153  -0.00474  -0.00664  -0.00157   0.00080
  96        4S          0.05619   0.02141   0.03447   0.01085  -0.01083
  97        5S         -0.00204  -0.00464  -0.00620  -0.00353   0.00807
  98        6S         -0.00058   0.00290   0.00007  -0.00075   0.00223
  99        7PX         0.00000   0.00000   0.00000   0.00000   0.00000
 100        7PY        -0.36662   0.33472   0.48593   0.22193  -0.30596
 101        7PZ        -0.21238   0.24490   0.29481   0.13937  -0.18286
 102        8PX         0.00000   0.00000   0.00000   0.00000   0.00000
 103        8PY         0.00660  -0.00625  -0.00765  -0.00336   0.00513
 104        8PZ         0.00386  -0.00495  -0.00485  -0.00217   0.00361
 105        9PX         0.00000   0.00000   0.00000   0.00000   0.00000
 106        9PY        -0.02086   0.02042   0.02962   0.01381  -0.01962
 107        9PZ        -0.01213   0.01509   0.01805   0.00868  -0.01188
 108       10PX         0.00000   0.00000   0.00000   0.00000   0.00000
 109       10PY         0.00261   0.00025  -0.00105  -0.00093   0.00307
 110       10PZ         0.00149  -0.00038  -0.00056  -0.00097   0.00219
 111       11PX         0.00000   0.00000   0.00000   0.00000   0.00000
 112       11PY         0.00007   0.00010  -0.00002  -0.00005   0.00020
 113       11PZ         0.00010   0.00025   0.00004  -0.00015   0.00019
 114       12D 0       -0.00006   0.00001   0.00001   0.00002   0.00000
 115       12D+1        0.00000   0.00000   0.00000   0.00000   0.00000
 116       12D-1        0.00020   0.00031   0.00038   0.00024  -0.00034
 117       12D+2       -0.00010  -0.00023  -0.00032  -0.00014   0.00021
 118       12D-2        0.00000   0.00000   0.00000   0.00000   0.00000
 119       13D 0       -0.00001  -0.00049  -0.00005   0.00008   0.00006
 120       13D+1        0.00000   0.00000   0.00000   0.00000   0.00000
 121       13D-1        0.00053  -0.00184  -0.00158  -0.00091   0.00210
 122       13D+2       -0.00056   0.00080   0.00140   0.00065  -0.00131
 123       13D-2        0.00000   0.00000   0.00000   0.00000   0.00000
 124       14D 0       -0.00009  -0.00010   0.00001  -0.00008   0.00008
 125       14D+1        0.00000   0.00000   0.00000   0.00000   0.00000
 126       14D-1        0.00036   0.00004   0.00029  -0.00015   0.00065
 127       14D+2       -0.00030  -0.00063  -0.00020   0.00006  -0.00052
 128       14D-2        0.00000   0.00000   0.00000   0.00000   0.00000
 129       15F 0        0.00000  -0.00002   0.00003  -0.00002   0.00002
 130       15F+1        0.00000   0.00000   0.00000   0.00000   0.00000
 131       15F-1        0.00001  -0.00007  -0.00003   0.00004  -0.00002
 132       15F+2        0.00000   0.00003   0.00004  -0.00004  -0.00001
 133       15F-2        0.00000   0.00000   0.00000   0.00000   0.00000
 134       15F+3        0.00000   0.00000   0.00000   0.00000   0.00000
 135       15F-3       -0.00003  -0.00001   0.00007   0.00003  -0.00006
 136       16F 0       -0.00007   0.00029   0.00003   0.00014  -0.00034
 137       16F+1        0.00000   0.00000   0.00000   0.00000   0.00000
 138       16F-1        0.00005  -0.00044  -0.00015  -0.00014   0.00039
 139       16F+2       -0.00022   0.00050   0.00037   0.00029  -0.00060
 140       16F-2        0.00000   0.00000   0.00000   0.00000   0.00000
 141       16F+3        0.00000   0.00000   0.00000   0.00000   0.00000
 142       16F-3       -0.00012   0.00010   0.00025   0.00007  -0.00023
 143 4   Cl 1S         -0.12882   0.13707  -0.05106  -0.03759   0.03583
 144        2S          0.43449  -0.46566   0.17503   0.12826  -0.12231
 145        3S         -0.01305   0.00795  -0.00234  -0.00157   0.00083
 146        4S          0.03384  -0.03856   0.01407   0.01081  -0.01097
 147        5S         -0.00149   0.00749  -0.00206  -0.00352   0.00816
 148        6S          0.00021  -0.00234  -0.00177  -0.00077   0.00226
 149        7PX         0.00000   0.00000   0.00000   0.00000   0.00000
 150        7PY         0.21815   0.56019  -0.17457  -0.21870   0.30583
 151        7PZ        -0.10873  -0.37491   0.08034   0.13795  -0.18361
 152        8PX         0.00000   0.00000   0.00000   0.00000   0.00000
 153        8PY        -0.00373  -0.00961   0.00217   0.00331  -0.00515
 154        8PZ         0.00177   0.00692  -0.00078  -0.00216   0.00365
 155        9PX         0.00000   0.00000   0.00000   0.00000   0.00000
 156        9PY         0.01242   0.03417  -0.01063  -0.01362   0.01961
 157        9PZ        -0.00623  -0.02304   0.00486   0.00860  -0.01193
 158       10PX         0.00000   0.00000   0.00000   0.00000   0.00000
 159       10PY        -0.00181  -0.00042   0.00101   0.00093  -0.00309
 160       10PZ         0.00086   0.00067  -0.00022  -0.00098   0.00222
 161       11PX         0.00000   0.00000   0.00000   0.00000   0.00000
 162       11PY         0.00001   0.00007   0.00008   0.00005  -0.00019
 163       11PZ         0.00014  -0.00023  -0.00012  -0.00016   0.00019
 164       12D 0       -0.00004  -0.00002   0.00000   0.00002  -0.00001
 165       12D+1        0.00000   0.00000   0.00000   0.00000   0.00000
 166       12D-1       -0.00013   0.00048  -0.00011  -0.00024   0.00034
 167       12D+2       -0.00007   0.00038  -0.00011  -0.00014   0.00021
 168       12D-2        0.00000   0.00000   0.00000   0.00000   0.00000
 169       13D 0       -0.00012   0.00044   0.00026   0.00008   0.00008
 170       13D+1        0.00000   0.00000   0.00000   0.00000   0.00000
 171       13D-1       -0.00023  -0.00243   0.00012   0.00090  -0.00212
 172       13D+2       -0.00038  -0.00149   0.00061   0.00064  -0.00131
 173       13D-2        0.00000   0.00000   0.00000   0.00000   0.00000
 174       14D 0       -0.00007   0.00008   0.00008  -0.00009   0.00009
 175       14D+1        0.00000   0.00000   0.00000   0.00000   0.00000
 176       14D-1       -0.00023   0.00020  -0.00020   0.00015  -0.00066
 177       14D+2       -0.00037   0.00063   0.00024   0.00007  -0.00052
 178       14D-2        0.00000   0.00000   0.00000   0.00000   0.00000
 179       15F 0       -0.00001   0.00000   0.00004  -0.00002   0.00002
 180       15F+1        0.00000   0.00000   0.00000   0.00000   0.00000
 181       15F-1        0.00000  -0.00007  -0.00001  -0.00004   0.00002
 182       15F+2        0.00000  -0.00004   0.00002  -0.00004  -0.00001
 183       15F-2        0.00000   0.00000   0.00000   0.00000   0.00000
 184       15F+3        0.00000   0.00000   0.00000   0.00000   0.00000
 185       15F-3        0.00003   0.00004  -0.00006  -0.00003   0.00005
 186       16F 0       -0.00001  -0.00025  -0.00016   0.00014  -0.00034
 187       16F+1        0.00000   0.00000   0.00000   0.00000   0.00000
 188       16F-1        0.00002  -0.00045  -0.00015   0.00014  -0.00039
 189       16F+2       -0.00011  -0.00062  -0.00002   0.00029  -0.00060
 190       16F-2        0.00000   0.00000   0.00000   0.00000   0.00000
 191       16F+3        0.00000   0.00000   0.00000   0.00000   0.00000
 192       16F-3        0.00009   0.00024  -0.00014  -0.00007   0.00023
                          11        12        13        14        15
     Eigenvalues --     2.00000   2.00000   1.98121   1.97621   1.97463
   1 1   O  1S          0.00003   0.00000  -0.18585  -0.06345  -0.00055
   2        2S          0.00001   0.00000   0.48114   0.17158   0.00150
   3        3S          0.00000   0.00000   0.13530   0.04928   0.00044
   4        4S          0.00003   0.00000   0.29343   0.13535   0.00116
   5        5S          0.00004   0.00000   0.01960   0.02330   0.00023
   6        6PX         0.00000   0.00000   0.00000   0.00000   0.00000
   7        6PY         0.00000   0.00000   0.00006  -0.00061   0.04410
   8        6PZ         0.00000   0.00000  -0.00879   0.02877   0.00034
   9        7PX         0.00000   0.00000   0.00000   0.00000   0.00000
  10        7PY         0.00000  -0.00001   0.00008  -0.00074   0.05487
  11        7PZ         0.00000   0.00000  -0.01526   0.03050   0.00040
  12        8PX         0.00000   0.00000   0.00000   0.00000   0.00000
  13        8PY         0.00000  -0.00006   0.00009  -0.00044   0.04001
  14        8PZ         0.00003   0.00000   0.04923   0.02594   0.00035
  15        9PX         0.00000   0.00000   0.00000   0.00000   0.00000
  16        9PY         0.00000  -0.00001   0.00000   0.00003   0.00092
  17        9PZ         0.00000   0.00000   0.01374  -0.00037  -0.00002
  18       10D 0        0.00000   0.00000   0.00496   0.00005   0.00000
  19       10D+1        0.00000   0.00000   0.00000   0.00000   0.00000
  20       10D-1        0.00000   0.00000  -0.00001   0.00003  -0.00211
  21       10D+2        0.00000   0.00000  -0.00001  -0.00002   0.00000
  22       10D-2        0.00000   0.00000   0.00000   0.00000   0.00000
  23       11D 0       -0.00001   0.00000   0.01088   0.00146  -0.00001
  24       11D+1        0.00000   0.00000   0.00000   0.00000   0.00000
  25       11D-1        0.00000   0.00000  -0.00001   0.00006  -0.00536
  26       11D+2        0.00000   0.00000   0.00025   0.00101   0.00000
  27       11D-2        0.00000   0.00000   0.00000   0.00000   0.00000
  28       12D 0       -0.00002   0.00000  -0.01504  -0.00336  -0.00006
  29       12D+1        0.00000   0.00000   0.00000   0.00000   0.00000
  30       12D-1        0.00000   0.00002  -0.00003   0.00002  -0.00397
  31       12D+2        0.00000   0.00000   0.00140   0.00138   0.00000
  32       12D-2        0.00000   0.00000   0.00000   0.00000   0.00000
  33       13F 0        0.00000   0.00000  -0.00275  -0.00033   0.00000
  34       13F+1        0.00000   0.00000   0.00000   0.00000   0.00000
  35       13F-1        0.00000   0.00000   0.00000  -0.00002   0.00148
  36       13F+2        0.00000   0.00000   0.00021  -0.00005   0.00000
  37       13F-2        0.00000   0.00000   0.00000   0.00000   0.00000
  38       13F+3        0.00000   0.00000   0.00000   0.00000   0.00000
  39       13F-3        0.00000   0.00000   0.00000   0.00000   0.00008
  40       14F 0        0.00000   0.00000  -0.00009  -0.00058   0.00001
  41       14F+1        0.00000   0.00000   0.00000   0.00000   0.00000
  42       14F-1        0.00000   0.00000  -0.00001   0.00001   0.00015
  43       14F+2        0.00000   0.00000  -0.00068  -0.00106   0.00000
  44       14F-2        0.00000   0.00000   0.00000   0.00000   0.00000
  45       14F+3        0.00000   0.00000   0.00000   0.00000   0.00000
  46       14F-3        0.00000   0.00000   0.00000  -0.00001   0.00043
  47 2   C  1S         -0.00030  -0.00001  -0.08458   0.04583   0.00044
  48        2S          0.00003   0.00000   0.19485  -0.12685  -0.00120
  49        3S          0.00002   0.00000   0.04635  -0.02640  -0.00022
  50        4S         -0.00013  -0.00001   0.00347  -0.05540  -0.00051
  51        5S         -0.00005   0.00000  -0.00413  -0.02440  -0.00029
  52        6PX         0.00000   0.00000   0.00000   0.00000   0.00000
  53        6PY         0.00000   0.00001   0.00025  -0.00148   0.07206
  54        6PZ        -0.00001   0.00000   0.06333   0.05788   0.00041
  55        7PX         0.00000   0.00000   0.00000   0.00000   0.00000
  56        7PY         0.00000  -0.00004   0.00046  -0.00190   0.09755
  57        7PZ         0.00005   0.00000   0.04866   0.06725   0.00063
  58        8PX         0.00000   0.00000   0.00000   0.00000   0.00000
  59        8PY         0.00000   0.00009   0.00025   0.00003  -0.00696
  60        8PZ        -0.00001   0.00000  -0.01869  -0.00349  -0.00003
  61        9PX         0.00000   0.00000   0.00000   0.00000   0.00000
  62        9PY         0.00000   0.00001   0.00006  -0.00012   0.00609
  63        9PZ         0.00000   0.00000  -0.00737   0.00324   0.00006
  64       10D 0        0.00000   0.00000   0.01555   0.00260   0.00003
  65       10D+1        0.00000   0.00000   0.00000   0.00000   0.00000
  66       10D-1        0.00000   0.00000  -0.00005   0.00021  -0.00601
  67       10D+2        0.00000   0.00000  -0.00270   0.00664   0.00005
  68       10D-2        0.00000   0.00000   0.00000   0.00000   0.00000
  69       11D 0       -0.00001   0.00000   0.00616  -0.00234   0.00004
  70       11D+1        0.00000   0.00000   0.00000   0.00000   0.00000
  71       11D-1        0.00000   0.00007  -0.00014   0.00039  -0.01941
  72       11D+2        0.00005   0.00000  -0.00338   0.01156   0.00017
  73       11D-2        0.00000   0.00000   0.00000   0.00000   0.00000
  74       12D 0       -0.00003   0.00000  -0.01995  -0.00792  -0.00007
  75       12D+1        0.00000   0.00000   0.00000   0.00000   0.00000
  76       12D-1        0.00000   0.00001  -0.00002  -0.00013   0.00452
  77       12D+2        0.00001   0.00000  -0.00114  -0.00278   0.00000
  78       12D-2        0.00000   0.00000   0.00000   0.00000   0.00000
  79       13F 0        0.00000   0.00000   0.00594  -0.00202  -0.00001
  80       13F+1        0.00000   0.00000   0.00000   0.00000   0.00000
  81       13F-1        0.00000   0.00000   0.00002  -0.00008   0.00233
  82       13F+2       -0.00001   0.00000   0.00261  -0.00428  -0.00004
  83       13F-2        0.00000   0.00000   0.00000   0.00000   0.00000
  84       13F+3        0.00000   0.00000   0.00000   0.00000   0.00000
  85       13F-3        0.00000   0.00001  -0.00002   0.00005  -0.00267
  86       14F 0       -0.00003   0.00000  -0.00661  -0.00482  -0.00007
  87       14F+1        0.00000   0.00000   0.00000   0.00000   0.00000
  88       14F-1        0.00000   0.00002  -0.00001  -0.00008   0.00153
  89       14F+2       -0.00003   0.00000  -0.00279  -0.00586  -0.00007
  90       14F-2        0.00000   0.00000   0.00000   0.00000   0.00000
  91       14F+3        0.00000   0.00000   0.00000   0.00000   0.00000
  92       14F-3        0.00000   0.00001  -0.00002  -0.00001   0.00005
  93 3   Cl 1S          0.72946  -0.67991   0.01123  -0.04674  -0.05294
  94        2S          0.00724  -0.00691  -0.04073   0.17533   0.19803
  95        3S          0.00011  -0.00011   0.09202  -0.37302  -0.42423
  96        4S          0.00015  -0.00015   0.01041  -0.04584  -0.05325
  97        5S          0.00000   0.00006   0.04998  -0.22147  -0.26063
  98        6S          0.00001   0.00007  -0.00317   0.01058   0.00616
  99        7PX         0.00000   0.00000   0.00000   0.00000   0.00000
 100        7PY        -0.00086   0.00039  -0.00745   0.01507   0.00100
 101        7PZ        -0.00046   0.00032  -0.00921   0.00142   0.00823
 102        8PX         0.00000   0.00000   0.00000   0.00000   0.00000
 103        8PY         0.00007  -0.00006   0.01292  -0.02070   0.01543
 104        8PZ         0.00006  -0.00004   0.02304   0.01043  -0.01095
 105        9PX         0.00000   0.00000   0.00000   0.00000   0.00000
 106        9PY        -0.00009   0.00005   0.00602  -0.00971   0.00631
 107        9PZ        -0.00005   0.00004   0.00993   0.00387  -0.00511
 108       10PX         0.00000   0.00000   0.00000   0.00000   0.00000
 109       10PY        -0.00001   0.00007   0.00306   0.00193   0.01616
 110       10PZ        -0.00002   0.00004   0.00273   0.00958  -0.00066
 111       11PX         0.00000   0.00000   0.00000   0.00000   0.00000
 112       11PY         0.00000   0.00001  -0.00126   0.00373   0.00228
 113       11PZ         0.00000   0.00000   0.00097   0.00163   0.00268
 114       12D 0        0.00000   0.00000   0.00035   0.00148  -0.00092
 115       12D+1        0.00000   0.00000   0.00000   0.00000   0.00000
 116       12D-1        0.00000  -0.00001   0.00347  -0.00574  -0.00602
 117       12D+2        0.00000   0.00000  -0.00268   0.00544   0.00310
 118       12D-2        0.00000   0.00000   0.00000   0.00000   0.00000
 119       13D 0        0.00000   0.00000  -0.00048   0.00219  -0.00245
 120       13D+1        0.00000   0.00000   0.00000   0.00000   0.00000
 121       13D-1        0.00003  -0.00002   0.00380  -0.00499  -0.00496
 122       13D+2       -0.00001   0.00001  -0.00141   0.00602   0.00140
 123       13D-2        0.00000   0.00000   0.00000   0.00000   0.00000
 124       14D 0        0.00000   0.00000   0.00000  -0.00054  -0.00067
 125       14D+1        0.00000   0.00000   0.00000   0.00000   0.00000
 126       14D-1       -0.00001   0.00002  -0.00197   0.00138   0.00195
 127       14D+2        0.00001  -0.00002  -0.00090  -0.00188  -0.00297
 128       14D-2        0.00000   0.00000   0.00000   0.00000   0.00000
 129       15F 0        0.00000   0.00000  -0.00033   0.00139   0.00088
 130       15F+1        0.00000   0.00000   0.00000   0.00000   0.00000
 131       15F-1        0.00000   0.00000   0.00040  -0.00018  -0.00164
 132       15F+2       -0.00001   0.00000  -0.00077   0.00217   0.00224
 133       15F-2        0.00000   0.00000   0.00000   0.00000   0.00000
 134       15F+3        0.00000   0.00000   0.00000   0.00000   0.00000
 135       15F-3        0.00000   0.00000  -0.00060   0.00181   0.00086
 136       16F 0        0.00000   0.00000  -0.00044   0.00011  -0.00049
 137       16F+1        0.00000   0.00000   0.00000   0.00000   0.00000
 138       16F-1        0.00000   0.00000  -0.00026   0.00024  -0.00025
 139       16F+2        0.00000   0.00000   0.00016   0.00023  -0.00100
 140       16F-2        0.00000   0.00000   0.00000   0.00000   0.00000
 141       16F+3        0.00000   0.00000   0.00000   0.00000   0.00000
 142       16F-3        0.00000   0.00000   0.00095   0.00009  -0.00071
 143 4   Cl 1S          0.67996   0.72943   0.01141  -0.04836   0.05134
 144        2S          0.00672   0.00738  -0.04141   0.18137  -0.19202
 145        3S          0.00011   0.00012   0.09355  -0.38592   0.41142
 146        4S          0.00014   0.00016   0.01064  -0.04743   0.05166
 147        5S          0.00001  -0.00006   0.05016  -0.22873   0.25239
 148        6S          0.00002  -0.00006  -0.00368   0.01120  -0.00610
 149        7PX         0.00000   0.00000   0.00000   0.00000   0.00000
 150        7PY         0.00084   0.00047   0.00756  -0.01543   0.00071
 151        7PZ        -0.00045  -0.00037  -0.00939   0.00189  -0.00842
 152        8PX         0.00000   0.00000   0.00000   0.00000   0.00000
 153        8PY        -0.00007  -0.00007  -0.01284   0.02069   0.01598
 154        8PZ         0.00005   0.00005   0.02325   0.00988   0.01153
 155        9PX         0.00000   0.00000   0.00000   0.00000   0.00000
 156        9PY         0.00008   0.00006  -0.00613   0.00984   0.00644
 157        9PZ        -0.00005  -0.00005   0.01012   0.00356   0.00542
 158       10PX         0.00000   0.00000   0.00000   0.00000   0.00000
 159       10PY         0.00000   0.00006  -0.00261  -0.00260   0.01636
 160       10PZ        -0.00001  -0.00004   0.00246   0.00965   0.00091
 161       11PX         0.00000   0.00000   0.00000   0.00000   0.00000
 162       11PY         0.00000   0.00001   0.00133  -0.00383   0.00216
 163       11PZ         0.00000  -0.00001   0.00093   0.00173  -0.00266
 164       12D 0        0.00000   0.00000   0.00038   0.00144   0.00102
 165       12D+1        0.00000   0.00000   0.00000   0.00000   0.00000
 166       12D-1        0.00000  -0.00001  -0.00356   0.00609  -0.00598
 167       12D+2        0.00000   0.00000  -0.00272   0.00564  -0.00298
 168       12D-2        0.00000   0.00000   0.00000   0.00000   0.00000
 169       13D 0        0.00000   0.00000  -0.00046   0.00207   0.00260
 170       13D+1        0.00000   0.00000   0.00000   0.00000   0.00000
 171       13D-1       -0.00003  -0.00002  -0.00374   0.00524  -0.00483
 172       13D+2       -0.00001  -0.00001  -0.00133   0.00607  -0.00118
 173       13D-2        0.00000   0.00000   0.00000   0.00000   0.00000
 174       14D 0        0.00000   0.00000  -0.00001  -0.00057   0.00068
 175       14D+1        0.00000   0.00000   0.00000   0.00000   0.00000
 176       14D-1        0.00001   0.00002   0.00207  -0.00151   0.00199
 177       14D+2        0.00001   0.00002  -0.00080  -0.00205   0.00299
 178       14D-2        0.00000   0.00000   0.00000   0.00000   0.00000
 179       15F 0        0.00000   0.00000  -0.00032   0.00145  -0.00085
 180       15F+1        0.00000   0.00000   0.00000   0.00000   0.00000
 181       15F-1        0.00000   0.00000  -0.00042   0.00027  -0.00169
 182       15F+2       -0.00001   0.00000  -0.00078   0.00230  -0.00223
 183       15F-2        0.00000   0.00000   0.00000   0.00000   0.00000
 184       15F+3        0.00000   0.00000   0.00000   0.00000   0.00000
 185       15F-3        0.00000   0.00000   0.00060  -0.00186   0.00082
 186       16F 0        0.00000   0.00000  -0.00043   0.00007   0.00051
 187       16F+1        0.00000   0.00000   0.00000   0.00000   0.00000
 188       16F-1        0.00000   0.00000   0.00028  -0.00022  -0.00024
 189       16F+2        0.00000   0.00000   0.00021   0.00018   0.00104
 190       16F-2        0.00000   0.00000   0.00000   0.00000   0.00000
 191       16F+3        0.00000   0.00000   0.00000   0.00000   0.00000
 192       16F-3        0.00000   0.00000  -0.00099  -0.00004  -0.00073
                          16        17        18        19        20
     Eigenvalues --     1.96278   1.95793   1.95163   1.94910   1.94743
   1 1   O  1S          0.03975  -0.00021  -0.00819   0.00000   0.01537
   2        2S         -0.12888   0.00069   0.02114   0.00000  -0.04152
   3        3S         -0.04229   0.00024   0.00663   0.00000  -0.01171
   4        4S         -0.23871   0.00147   0.02416   0.00000  -0.01643
   5        5S         -0.05961   0.00049   0.02434   0.00000  -0.00062
   6        6PX         0.00000   0.00000   0.00000   0.02823   0.00000
   7        6PY         0.00204   0.29843  -0.00042   0.00000   0.09033
   8        6PZ        -0.29512   0.00222  -0.00639   0.00000   0.05810
   9        7PX         0.00000   0.00000   0.00000   0.03570   0.00000
  10        7PY         0.00254   0.37057  -0.00054   0.00000   0.11032
  11        7PZ        -0.34943   0.00266  -0.00922   0.00000   0.07091
  12        8PX         0.00000   0.00000   0.00000   0.01774   0.00000
  13        8PY         0.00189   0.27129  -0.00038   0.00000   0.07675
  14        8PZ        -0.15255   0.00117   0.00009   0.00000   0.02305
  15        9PX         0.00000   0.00000   0.00000  -0.01198   0.00000
  16        9PY         0.00028   0.03777  -0.00005   0.00000   0.01233
  17        9PZ         0.00113  -0.00008   0.00058   0.00000  -0.00195
  18       10D 0        0.01320  -0.00010   0.00016   0.00000  -0.00271
  19       10D+1        0.00000   0.00000   0.00000  -0.00316   0.00000
  20       10D-1       -0.00006  -0.00900   0.00002   0.00000  -0.00164
  21       10D+2       -0.00002   0.00000   0.00058   0.00000  -0.00002
  22       10D-2        0.00000   0.00000   0.00000   0.00000   0.00000
  23       11D 0        0.02658  -0.00021   0.00128   0.00000  -0.00527
  24       11D+1        0.00000   0.00000   0.00000  -0.00880   0.00000
  25       11D-1       -0.00019  -0.02619   0.00010   0.00000  -0.00201
  26       11D+2        0.00116  -0.00003   0.00044   0.00000  -0.00117
  27       11D-2        0.00000   0.00000   0.00000   0.00001   0.00000
  28       12D 0       -0.00320   0.00002  -0.00102   0.00000   0.00684
  29       12D+1        0.00000   0.00000   0.00000  -0.00701   0.00000
  30       12D-1       -0.00014  -0.01706   0.00006   0.00000  -0.00111
  31       12D+2        0.00218  -0.00006   0.00221   0.00000  -0.00131
  32       12D-2        0.00000   0.00000   0.00000  -0.00002   0.00000
  33       13F 0       -0.00481   0.00004  -0.00002   0.00000   0.00107
  34       13F+1        0.00000   0.00000   0.00000   0.00168   0.00000
  35       13F-1        0.00004   0.00562  -0.00002   0.00000   0.00076
  36       13F+2       -0.00068   0.00000  -0.00016   0.00000   0.00027
  37       13F-2        0.00000   0.00000   0.00000   0.00000   0.00000
  38       13F+3        0.00000   0.00000   0.00000  -0.00001   0.00000
  39       13F-3        0.00001   0.00091   0.00000   0.00000   0.00037
  40       14F 0       -0.00411   0.00003  -0.00021   0.00000   0.00112
  41       14F+1        0.00000   0.00000   0.00000   0.00110   0.00000
  42       14F-1        0.00003   0.00425  -0.00004   0.00000  -0.00010
  43       14F+2       -0.00162   0.00004   0.00035   0.00000   0.00133
  44       14F-2        0.00000   0.00000   0.00000   0.00000   0.00000
  45       14F+3        0.00000   0.00000   0.00000   0.00073   0.00000
  46       14F-3        0.00001   0.00101   0.00000   0.00000   0.00010
  47 2   C  1S         -0.11379   0.00073  -0.03682   0.00000  -0.04270
  48        2S          0.30984  -0.00196   0.10350   0.00000   0.12226
  49        3S          0.08103  -0.00058   0.02554   0.00000   0.02628
  50        4S          0.10782   0.00022   0.05394   0.00000   0.09176
  51        5S          0.00896   0.00021   0.01341   0.00000   0.01176
  52        6PX         0.00000   0.00000   0.00000   0.11183   0.00000
  53        6PY         0.00083   0.14435  -0.00033   0.00000   0.01340
  54        6PZ         0.14793  -0.00126  -0.05144   0.00000  -0.09756
  55        7PX         0.00000   0.00000   0.00000   0.15433   0.00000
  56        7PY         0.00129   0.18798  -0.00038   0.00000   0.02037
  57        7PZ         0.15680  -0.00138  -0.07387   0.00000  -0.12502
  58        8PX         0.00000   0.00000   0.00000   0.04557   0.00000
  59        8PY         0.00036   0.01670   0.00010   0.00000   0.00463
  60        8PZ        -0.00229  -0.00032  -0.02663   0.00000  -0.01885
  61        9PX         0.00000   0.00000   0.00000   0.01284   0.00000
  62        9PY        -0.00003  -0.00871  -0.00006   0.00000  -0.00814
  63        9PZ        -0.00249   0.00004  -0.01073   0.00000   0.00417
  64       10D 0        0.01568  -0.00016   0.01072   0.00000  -0.00728
  65       10D+1        0.00000   0.00000   0.00000  -0.00469   0.00000
  66       10D-1        0.00016   0.02074  -0.00009   0.00000   0.00290
  67       10D+2        0.00000  -0.00007   0.00388   0.00000  -0.00544
  68       10D-2        0.00000   0.00000   0.00000   0.00012   0.00000
  69       11D 0        0.00124   0.00005   0.03300   0.00000  -0.00526
  70       11D+1        0.00000   0.00000   0.00000  -0.02730   0.00000
  71       11D-1        0.00006   0.01987   0.00005   0.00000   0.00176
  72       11D+2       -0.00459  -0.00011   0.01535   0.00000  -0.01042
  73       11D-2        0.00000   0.00000   0.00000   0.00018   0.00000
  74       12D 0        0.00026   0.00008  -0.02306   0.00000   0.01757
  75       12D+1        0.00000   0.00000   0.00000  -0.00822   0.00000
  76       12D-1       -0.00018  -0.01539   0.00005   0.00000   0.01158
  77       12D+2        0.00431  -0.00013  -0.01744   0.00000   0.00451
  78       12D-2        0.00000   0.00000   0.00000  -0.00002   0.00000
  79       13F 0        0.00922  -0.00003  -0.00073   0.00000  -0.00010
  80       13F+1        0.00000   0.00000   0.00000   0.00258   0.00000
  81       13F-1        0.00002   0.00512   0.00008   0.00000   0.00714
  82       13F+2        0.00176   0.00003   0.00180   0.00000   0.00344
  83       13F-2        0.00000   0.00000   0.00000  -0.00007   0.00000
  84       13F+3        0.00000   0.00000   0.00000  -0.00486   0.00000
  85       13F-3       -0.00004  -0.00292   0.00002   0.00000   0.00123
  86       14F 0       -0.00999   0.00009  -0.00449   0.00000   0.00753
  87       14F+1        0.00000   0.00000   0.00000  -0.00045   0.00000
  88       14F-1        0.00001   0.00186  -0.00009   0.00000   0.01195
  89       14F+2       -0.00318   0.00008  -0.00095   0.00000   0.00387
  90       14F-2        0.00000   0.00000   0.00000   0.00002   0.00000
  91       14F+3        0.00000   0.00000   0.00000  -0.00307   0.00000
  92       14F-3       -0.00001   0.00081  -0.00002   0.00000   0.00288
  93 3   Cl 1S         -0.01180   0.01522  -0.01077   0.00000  -0.00915
  94        2S          0.04571  -0.05798   0.04090   0.00000   0.03469
  95        3S         -0.09299   0.12420  -0.08892   0.00000  -0.07782
  96        4S         -0.01250   0.01725  -0.01390   0.00000  -0.01307
  97        5S         -0.07898   0.11951  -0.08355   0.00000  -0.08256
  98        6S         -0.00818   0.00822  -0.02282   0.00000  -0.02238
  99        7PX         0.00000   0.00000   0.00000  -0.14750   0.00000
 100        7PY        -0.00342   0.00407  -0.10776   0.00000   0.03978
 101        7PZ        -0.01465   0.04373   0.10730   0.00000  -0.17675
 102        8PX         0.00000   0.00000   0.00000   0.34753   0.00000
 103        8PY         0.00429   0.00323   0.24863   0.00000  -0.10473
 104        8PZ         0.03198  -0.09565  -0.25652   0.00000   0.40870
 105        9PX         0.00000   0.00000   0.00000   0.16225   0.00000
 106        9PY         0.00391  -0.00269   0.11748   0.00000  -0.05112
 107        9PZ         0.01650  -0.04777  -0.12276   0.00000   0.19550
 108       10PX         0.00000   0.00000   0.00000   0.19530   0.00000
 109       10PY        -0.01524   0.03116   0.12749   0.00000  -0.10550
 110       10PZ         0.00588  -0.03784  -0.17461   0.00000   0.24402
 111       11PX         0.00000   0.00000   0.00000   0.00081   0.00000
 112       11PY        -0.00086   0.00448   0.00030   0.00000  -0.00865
 113       11PZ         0.00003   0.00272  -0.00756   0.00000   0.00946
 114       12D 0        0.00312  -0.00566  -0.00698   0.00000  -0.00121
 115       12D+1        0.00000   0.00000   0.00000   0.00560   0.00000
 116       12D-1        0.00562  -0.01037   0.00173   0.00000   0.00940
 117       12D+2       -0.00097   0.00444  -0.00961   0.00000  -0.00780
 118       12D-2        0.00000   0.00000   0.00000   0.01073   0.00000
 119       13D 0        0.00213  -0.00870  -0.00848   0.00000  -0.00313
 120       13D+1        0.00000   0.00000   0.00000   0.00831   0.00000
 121       13D-1        0.00531  -0.00693   0.00120   0.00000   0.00870
 122       13D+2        0.00166   0.00044  -0.01171   0.00000  -0.01049
 123       13D-2        0.00000   0.00000   0.00000   0.01648   0.00000
 124       14D 0        0.00225  -0.00608  -0.00786   0.00000   0.00311
 125       14D+1        0.00000   0.00000   0.00000   0.00176   0.00000
 126       14D-1       -0.00040  -0.00172  -0.00333   0.00000   0.00391
 127       14D+2        0.00312  -0.00298  -0.00563   0.00000   0.00229
 128       14D-2        0.00000   0.00000   0.00000   0.00529   0.00000
 129       15F 0        0.00032  -0.00024  -0.00199   0.00000  -0.00159
 130       15F+1        0.00000   0.00000   0.00000   0.00052   0.00000
 131       15F-1        0.00144  -0.00359  -0.00398   0.00000   0.00327
 132       15F+2       -0.00035   0.00229  -0.00138   0.00000  -0.00346
 133       15F-2        0.00000   0.00000   0.00000   0.00440   0.00000
 134       15F+3        0.00000   0.00000   0.00000  -0.00433   0.00000
 135       15F-3        0.00033   0.00050  -0.00326   0.00000  -0.00154
 136       16F 0       -0.00160  -0.00135  -0.00043   0.00000  -0.00016
 137       16F+1        0.00000   0.00000   0.00000  -0.00045   0.00000
 138       16F-1       -0.00017  -0.00053  -0.00205   0.00000   0.00138
 139       16F+2       -0.00021  -0.00213  -0.00051   0.00000  -0.00041
 140       16F-2        0.00000   0.00000   0.00000   0.00222   0.00000
 141       16F+3        0.00000   0.00000   0.00000  -0.00245   0.00000
 142       16F-3        0.00114  -0.00161  -0.00112   0.00000  -0.00082
 143 4   Cl 1S         -0.01212  -0.01513  -0.01074   0.00000  -0.00702
 144        2S          0.04694   0.05760   0.04080   0.00000   0.02634
 145        3S         -0.09570  -0.12367  -0.08872   0.00000  -0.06139
 146        4S         -0.01279  -0.01714  -0.01387   0.00000  -0.00971
 147        5S         -0.08207  -0.12028  -0.08381   0.00000  -0.06644
 148        6S         -0.00859  -0.00856  -0.02279   0.00000  -0.00220
 149        7PX         0.00000   0.00000   0.00000  -0.14795   0.00000
 150        7PY         0.00358   0.00487   0.10882   0.00000   0.11273
 151        7PZ        -0.01527  -0.04394   0.10683   0.00000   0.05341
 152        8PX         0.00000   0.00000   0.00000   0.34862   0.00000
 153        8PY        -0.00426   0.00176  -0.25101   0.00000  -0.25133
 154        8PZ         0.03313   0.09581  -0.25561   0.00000  -0.13762
 155        9PX         0.00000   0.00000   0.00000   0.16274   0.00000
 156        9PY        -0.00409  -0.00358  -0.11866   0.00000  -0.12133
 157        9PZ         0.01721   0.04797  -0.12228   0.00000  -0.06353
 158       10PX         0.00000   0.00000   0.00000   0.19523   0.00000
 159       10PY         0.01587   0.03047  -0.12863   0.00000  -0.12030
 160       10PZ         0.00593   0.03741  -0.17397   0.00000  -0.09902
 161       11PX         0.00000   0.00000   0.00000   0.00061   0.00000
 162       11PY         0.00091   0.00444  -0.00027   0.00000  -0.00231
 163       11PZ        -0.00005  -0.00282  -0.00737   0.00000  -0.00790
 164       12D 0        0.00329   0.00579  -0.00710   0.00000  -0.00283
 165       12D+1        0.00000   0.00000   0.00000   0.00577   0.00000
 166       12D-1       -0.00579  -0.01045  -0.00184   0.00000  -0.01210
 167       12D+2       -0.00098  -0.00446  -0.00976   0.00000  -0.00911
 168       12D-2        0.00000   0.00000   0.00000  -0.01092   0.00000
 169       13D 0        0.00231   0.00884  -0.00861   0.00000  -0.00182
 170       13D+1        0.00000   0.00000   0.00000   0.00847   0.00000
 171       13D-1       -0.00532  -0.00682  -0.00129   0.00000  -0.01041
 172       13D+2        0.00177  -0.00041  -0.01179   0.00000  -0.00795
 173       13D-2        0.00000   0.00000   0.00000  -0.01662   0.00000
 174       14D 0        0.00233   0.00606  -0.00793   0.00000   0.00082
 175       14D+1        0.00000   0.00000   0.00000   0.00177   0.00000
 176       14D-1        0.00043  -0.00157   0.00325   0.00000  -0.00134
 177       14D+2        0.00319   0.00300  -0.00565   0.00000   0.00163
 178       14D-2        0.00000   0.00000   0.00000  -0.00526   0.00000
 179       15F 0        0.00036   0.00026  -0.00206   0.00000  -0.00307
 180       15F+1        0.00000   0.00000   0.00000   0.00055   0.00000
 181       15F-1       -0.00150  -0.00366   0.00401   0.00000   0.00117
 182       15F+2       -0.00034  -0.00233  -0.00144   0.00000  -0.00417
 183       15F-2        0.00000   0.00000   0.00000  -0.00449   0.00000
 184       15F+3        0.00000   0.00000   0.00000  -0.00439   0.00000
 185       15F-3       -0.00035   0.00051   0.00330   0.00000   0.00312
 186       16F 0       -0.00159   0.00139  -0.00045   0.00000   0.00063
 187       16F+1        0.00000   0.00000   0.00000  -0.00046   0.00000
 188       16F-1        0.00019  -0.00047   0.00203   0.00000   0.00103
 189       16F+2       -0.00017   0.00216  -0.00053   0.00000   0.00054
 190       16F-2        0.00000   0.00000   0.00000  -0.00218   0.00000
 191       16F+3        0.00000   0.00000   0.00000  -0.00238   0.00000
 192       16F-3       -0.00117  -0.00158   0.00108   0.00000  -0.00014
                          21        22        23        24        25
     Eigenvalues --     1.94741   1.94724   1.93720   1.93122   0.06662
   1 1   O  1S         -0.02266   0.00000  -0.00043   0.00000   0.00000
   2        2S          0.06122   0.00000   0.00116   0.00000   0.00000
   3        3S          0.01727   0.00000   0.00034   0.00000   0.00000
   4        4S          0.02447   0.00000   0.00045   0.00000   0.00000
   5        5S          0.00104   0.00000  -0.00011   0.00000   0.00000
   6        6PX         0.00000  -0.00044   0.00000   0.29510  -0.34414
   7        6PY         0.06517   0.00000  -0.14105   0.00000   0.00000
   8        6PZ        -0.08522   0.00000  -0.00147   0.00000   0.00000
   9        7PX         0.00000  -0.00055   0.00000   0.36982  -0.39605
  10        7PY         0.07971   0.00000  -0.17543   0.00000   0.00000
  11        7PZ        -0.10407   0.00000  -0.00177   0.00000   0.00000
  12        8PX         0.00000  -0.00035   0.00000   0.24762  -0.07271
  13        8PY         0.05567   0.00000  -0.12194   0.00000   0.00000
  14        8PZ        -0.03401   0.00000  -0.00056   0.00000   0.00000
  15        9PX         0.00000   0.00002   0.00000   0.02606  -0.00382
  16        9PY         0.00892   0.00000  -0.02185   0.00000   0.00000
  17        9PZ         0.00285   0.00000   0.00007   0.00000   0.00000
  18       10D 0        0.00397   0.00000   0.00007   0.00000   0.00000
  19       10D+1        0.00000   0.00003   0.00000  -0.01035  -0.01308
  20       10D-1       -0.00116   0.00000   0.00022   0.00000   0.00000
  21       10D+2        0.00003   0.00000   0.00000   0.00000   0.00000
  22       10D-2        0.00000  -0.00038   0.00000   0.00000  -0.00001
  23       11D 0        0.00773   0.00000   0.00011   0.00000   0.00000
  24       11D+1        0.00000   0.00006   0.00000  -0.02821  -0.01089
  25       11D-1       -0.00151   0.00000  -0.00013   0.00000   0.00000
  26       11D+2        0.00172   0.00000   0.00003   0.00000   0.00000
  27       11D-2        0.00000  -0.00175   0.00000   0.00001   0.00001
  28       12D 0       -0.00997   0.00000  -0.00021   0.00000   0.00000
  29       12D+1        0.00000   0.00004   0.00000  -0.01255   0.01614
  30       12D-1       -0.00081   0.00000  -0.00735   0.00000   0.00000
  31       12D+2        0.00193   0.00000   0.00001   0.00000   0.00000
  32       12D-2        0.00000  -0.00384   0.00000   0.00000   0.00002
  33       13F 0       -0.00157   0.00000  -0.00003   0.00000   0.00000
  34       13F+1        0.00000  -0.00001   0.00000   0.00540   0.00388
  35       13F-1        0.00054   0.00000   0.00021   0.00000   0.00000
  36       13F+2       -0.00040   0.00000  -0.00001   0.00000   0.00000
  37       13F-2        0.00000   0.00034   0.00000   0.00000  -0.00001
  38       13F+3        0.00000   0.00000   0.00000   0.00105  -0.00254
  39       13F-3        0.00027   0.00000  -0.00045   0.00000   0.00000
  40       14F 0       -0.00165   0.00000   0.00000   0.00000   0.00000
  41       14F+1        0.00000   0.00000   0.00000   0.00346  -0.00537
  42       14F-1       -0.00002   0.00000  -0.00073   0.00000   0.00000
  43       14F+2       -0.00195   0.00000  -0.00002   0.00000   0.00000
  44       14F-2        0.00000   0.00121   0.00000   0.00000  -0.00004
  45       14F+3        0.00000   0.00000   0.00000   0.00089  -0.00076
  46       14F-3        0.00008   0.00000  -0.00019   0.00000   0.00000
  47 2   C  1S          0.06255   0.00000   0.00097   0.00000   0.00000
  48        2S         -0.17912   0.00000  -0.00269   0.00000   0.00000
  49        3S         -0.03852   0.00000  -0.00048   0.00000   0.00000
  50        4S         -0.13426   0.00000  -0.00285   0.00000   0.00000
  51        5S         -0.01695   0.00000  -0.00037   0.00000   0.00000
  52        6PX         0.00000  -0.00083   0.00000   0.17216   0.30787
  53        6PY         0.00694   0.00000   0.14015   0.00000   0.00000
  54        6PZ         0.14264   0.00000   0.00219   0.00000   0.00000
  55        7PX         0.00000  -0.00109   0.00000   0.21937   0.46703
  56        7PY         0.01093   0.00000   0.19903   0.00000   0.00000
  57        7PZ         0.18253   0.00000   0.00306   0.00000   0.00000
  58        8PX         0.00000   0.00000   0.00000   0.08363   0.15570
  59        8PY         0.00274   0.00000   0.02943   0.00000   0.00000
  60        8PZ         0.02792   0.00000   0.00082   0.00000   0.00000
  61        9PX         0.00000  -0.00003   0.00000  -0.00184   0.01048
  62        9PY        -0.00561   0.00000  -0.00007   0.00000   0.00000
  63        9PZ        -0.00621   0.00000  -0.00008   0.00000   0.00000
  64       10D 0        0.01085   0.00000   0.00025   0.00000   0.00000
  65       10D+1        0.00000   0.00003   0.00000   0.02392  -0.00036
  66       10D-1        0.00271   0.00000  -0.02911   0.00000   0.00000
  67       10D+2        0.00807   0.00000   0.00010   0.00000   0.00000
  68       10D-2        0.00000  -0.01052   0.00000  -0.00002   0.00012
  69       11D 0        0.00807   0.00000   0.00024   0.00000   0.00000
  70       11D+1        0.00000   0.00010   0.00000   0.03727   0.02321
  71       11D-1        0.00251   0.00000  -0.07223   0.00000   0.00000
  72       11D+2        0.01542   0.00000   0.00040   0.00000   0.00000
  73       11D-2        0.00000  -0.03294   0.00000   0.00000   0.00015
  74       12D 0       -0.02596   0.00000  -0.00043   0.00000   0.00000
  75       12D+1        0.00000  -0.00006   0.00000  -0.00619   0.01355
  76       12D-1        0.00810   0.00000  -0.02045   0.00000   0.00000
  77       12D+2       -0.00675   0.00000  -0.00003   0.00000   0.00000
[...]
  74       12D 0       -0.05632   1.25092   0.00000   0.07556   0.24028
  75       12D+1        0.00000   0.00000   0.75008   0.00000   0.00000
  76       12D-1        7.06777   0.11217   0.00000  -2.24519   1.01668
  77       12D+2        0.00253   1.45272   0.00000   0.06805   0.11902
  78       12D-2        0.00000   0.00000  -0.00663   0.00000   0.00000
  79       13F 0        0.00078  -0.05399   0.00000   0.00118   0.00451
  80       13F+1        0.00000   0.00000  -0.09305   0.00000   0.00000
  81       13F-1       -0.02140   0.00028   0.00000  -0.07741  -0.01760
  82       13F+2        0.00039  -0.03889   0.00000  -0.00063  -0.00079
  83       13F-2        0.00000   0.00000  -0.00047   0.00000   0.00000
  84       13F+3        0.00000   0.00000   0.03788   0.00000   0.00000
  85       13F-3       -0.00634  -0.00034   0.00000   0.01110   0.01825
  86       14F 0       -0.00808   0.10591   0.00000  -0.00148  -0.00482
  87       14F+1        0.00000   0.00000  -0.18186   0.00000   0.00000
  88       14F-1        0.45844   0.00227   0.00000  -0.19951  -0.21049
  89       14F+2       -0.01119   0.25898   0.00000   0.00392   0.01715
  90       14F-2        0.00000   0.00000  -0.00027   0.00000   0.00000
  91       14F+3        0.00000   0.00000   0.01523   0.00000   0.00000
  92       14F-3        0.19742   0.00494   0.00000  -0.19259  -0.10073
  93 3   Cl 1S          0.02892  -0.01444   0.00000  -0.01171   0.00974
  94        2S          0.46282  -0.21738   0.00000  -0.15049   0.16816
  95        3S          1.16401  -0.56795   0.00000  -0.44539   0.39638
  96        4S         -0.22942   0.09297   0.00000  -0.01972  -0.14185
  97        5S         -6.76364   1.63844   0.00000   3.60947  -1.08584
  98        6S         -2.94078   1.31883   0.00000  12.99294   1.32716
  99        7PX         0.00000   0.00000  -0.01662   0.00000   0.00000
 100        7PY         0.00684   0.00352   0.00000  -0.01333  -0.00119
 101        7PZ        -0.01085  -0.00786   0.00000   0.00110   0.00363
 102        8PX         0.00000   0.00000  -0.21192   0.00000   0.00000
 103        8PY         0.00232   0.05464   0.00000  -0.21752   0.06533
 104        8PZ        -0.27696  -0.09432   0.00000   0.00459   0.09205
 105        9PX         0.00000   0.00000   0.06445   0.00000   0.00000
 106        9PY        -0.01917  -0.02925   0.00000   0.05021   0.00710
 107        9PZ         0.04454   0.01509   0.00000  -0.00735  -0.01265
 108       10PX         0.00000   0.00000   0.92617   0.00000   0.00000
 109       10PY        -3.31837   0.33251   0.00000   4.70494  -0.57621
 110       10PZ        -1.14479   1.86398   0.00000   3.48674  -0.01252
 111       11PX         0.00000   0.00000  -2.24667   0.00000   0.00000
 112       11PY        -0.51609  -0.71780   0.00000   2.21211  -3.01357
 113       11PZ         0.32919  -2.02160   0.00000   1.56999   0.58594
 114       12D 0        0.00884  -0.04109   0.00000  -0.02149   0.00493
 115       12D+1        0.00000   0.00000  -0.02674   0.00000   0.00000
 116       12D-1        0.05184  -0.08353   0.00000   0.01724  -0.01477
 117       12D+2       -0.01068   0.07063   0.00000  -0.03164   0.06002
 118       12D-2        0.00000   0.00000  -0.00982   0.00000   0.00000
 119       13D 0       -0.12785   0.16635   0.00000   0.12834   0.00026
 120       13D+1        0.00000   0.00000   0.08366   0.00000   0.00000
 121       13D-1       -0.38652   0.36737   0.00000   0.05918   0.13266
 122       13D+2        0.12332  -0.28620   0.00000   0.06599  -0.26443
 123       13D-2        0.00000   0.00000   0.03610   0.00000   0.00000
 124       14D 0        0.56324   0.27193   0.00000   0.08502   0.28658
 125       14D+1        0.00000   0.00000  -0.07875   0.00000   0.00000
 126       14D-1       -0.19905   0.10193   0.00000   1.56013  -0.15405
 127       14D+2        0.25059   0.38888   0.00000  -1.02282   0.76373
 128       14D-2        0.00000   0.00000   0.19237   0.00000   0.00000
 129       15F 0       -0.03358  -0.00184   0.00000   0.00825   0.01338
 130       15F+1        0.00000   0.00000  -0.00492   0.00000   0.00000
 131       15F-1       -0.00248  -0.04153   0.00000  -0.04652  -0.00192
 132       15F+2       -0.00210   0.02867   0.00000   0.01286   0.00314
 133       15F-2        0.00000   0.00000  -0.01686   0.00000   0.00000
 134       15F+3        0.00000   0.00000   0.04266   0.00000   0.00000
 135       15F-3        0.03147  -0.00081   0.00000  -0.00732   0.01108
 136       16F 0        0.13557   0.00675   0.00000  -0.03653  -0.02495
 137       16F+1        0.00000   0.00000  -0.00122   0.00000   0.00000
 138       16F-1       -0.06569   0.17793   0.00000   0.19226   0.04860
 139       16F+2        0.10201  -0.12975   0.00000  -0.11310  -0.02338
 140       16F-2        0.00000   0.00000   0.03745   0.00000   0.00000
 141       16F+3        0.00000   0.00000  -0.10327   0.00000   0.00000
 142       16F-3       -0.03112  -0.03817   0.00000  -0.02355   0.00169
 143 4   Cl 1S         -0.02922  -0.01559   0.00000   0.01169  -0.00844
 144        2S         -0.46765  -0.23448   0.00000   0.15123  -0.14571
 145        3S         -1.17631  -0.61344   0.00000   0.44529  -0.34363
 146        4S          0.23003   0.09758   0.00000   0.01646   0.12427
 147        5S          6.96927   1.95336   0.00000  -3.62095   0.95695
 148        6S          3.05026   1.69819   0.00000 -12.80362  -0.46129
 149        7PX         0.00000   0.00000  -0.01653   0.00000   0.00000
 150        7PY         0.00643  -0.00383   0.00000  -0.01322  -0.00028
 151        7PZ         0.01163  -0.00730   0.00000  -0.00186  -0.00634
 152        8PX         0.00000   0.00000  -0.21171   0.00000   0.00000
 153        8PY        -0.01266  -0.06204   0.00000  -0.21720   0.08007
 154        8PZ         0.29597  -0.08342   0.00000  -0.01624  -0.13560
 155        9PX         0.00000   0.00000   0.06406   0.00000   0.00000
 156        9PY        -0.01850   0.03067   0.00000   0.05035   0.00383
 157        9PZ        -0.04655   0.01256   0.00000   0.00972   0.02271
 158       10PX         0.00000   0.00000   0.93627   0.00000   0.00000
 159       10PY        -3.42970  -0.52754   0.00000   4.70644  -0.48102
 160       10PZ         1.15119   2.01038   0.00000  -3.40848   0.25417
 161       11PX         0.00000   0.00000  -2.25051   0.00000   0.00000
 162       11PY        -0.52090   0.64824   0.00000   2.20071  -3.19691
 163       11PZ        -0.28575  -2.01003   0.00000  -1.63099  -0.74228
 164       12D 0       -0.00755  -0.04230   0.00000   0.02073  -0.00766
 165       12D+1        0.00000   0.00000  -0.02647   0.00000   0.00000
 166       12D-1        0.05112   0.08439   0.00000   0.01911  -0.01660
 167       12D+2        0.01027   0.06990   0.00000   0.03378  -0.05931
 168       12D-2        0.00000   0.00000   0.00962   0.00000   0.00000
 169       13D 0        0.12405   0.17335   0.00000  -0.12703   0.00962
 170       13D+1        0.00000   0.00000   0.08246   0.00000   0.00000
 171       13D-1       -0.39441  -0.38069   0.00000   0.04988   0.14278
 172       13D+2       -0.12843  -0.29013   0.00000  -0.07554   0.26664
 173       13D-2        0.00000   0.00000  -0.03503   0.00000   0.00000
 174       14D 0       -0.57675   0.26740   0.00000  -0.07226  -0.24920
 175       14D+1        0.00000   0.00000  -0.07392   0.00000   0.00000
 176       14D-1       -0.19769  -0.14508   0.00000   1.55580  -0.18445
 177       14D+2       -0.26761   0.36186   0.00000   1.04170  -0.69780
 178       14D-2        0.00000   0.00000  -0.19723   0.00000   0.00000
 179       15F 0        0.03260  -0.00161   0.00000  -0.00812  -0.01266
 180       15F+1        0.00000   0.00000  -0.00513   0.00000   0.00000
 181       15F-1       -0.00446   0.04201   0.00000  -0.04668  -0.00469
 182       15F+2        0.00079   0.02710   0.00000  -0.01213  -0.00266
 183       15F-2        0.00000   0.00000   0.01653   0.00000   0.00000
 184       15F+3        0.00000   0.00000   0.04195   0.00000   0.00000
 185       15F-3        0.03172   0.00283   0.00000  -0.00701   0.01101
 186       16F 0       -0.13492   0.00477   0.00000   0.03461   0.02296
 187       16F+1        0.00000   0.00000  -0.00068   0.00000   0.00000
 188       16F-1       -0.06012  -0.18302   0.00000   0.19081   0.05268
 189       16F+2       -0.09963  -0.13150   0.00000   0.10918   0.02525
 190       16F-2        0.00000   0.00000  -0.03700   0.00000   0.00000
 191       16F+3        0.00000   0.00000  -0.10211   0.00000   0.00000
 192       16F-3       -0.03121   0.03613   0.00000  -0.02358  -0.00453
                         191       192
     Eigenvalues --     0.00000   0.00000
   1 1   O  1S          0.07096   0.07094
   2        2S          0.37955   0.36276
   3        3S          0.01099  -0.01535
   4        4S         -4.63734  -2.94599
   5        5S         -9.44050  -8.46185
   6        6PX         0.00000   0.00000
   7        6PY        -0.00042   0.00000
   8        6PZ        -0.00982   0.00443
   9        7PX         0.00000   0.00000
  10        7PY        -0.00226   0.00027
  11        7PZ         0.15387  -0.01194
  12        8PX         0.00000   0.00000
  13        8PY        -0.06183   0.00512
  14        8PZ         2.74293   2.13803
  15        9PX         0.00000   0.00000
  16        9PY         0.32562  -0.01434
  17        9PZ        -1.40465  -0.04305
  18       10D 0        0.03882   0.04093
  19       10D+1        0.00000   0.00000
  20       10D-1       -0.00328   0.00013
  21       10D+2       -0.02816  -0.01380
  22       10D-2        0.00000   0.00000
  23       11D 0       -0.31866  -0.21562
  24       11D+1        0.00000   0.00000
  25       11D-1        0.01733  -0.00110
  26       11D+2        0.08021   0.04258
  27       11D-2        0.00000   0.00000
  28       12D 0       -0.40505  -0.30995
  29       12D+1        0.00000   0.00000
  30       12D-1        0.00850  -0.00138
  31       12D+2       -0.44827  -0.12982
  32       12D-2        0.00000   0.00000
  33       13F 0        0.00919  -0.00989
  34       13F+1        0.00000   0.00000
  35       13F-1        0.00184  -0.00013
  36       13F+2       -0.01520  -0.00604
  37       13F-2        0.00000   0.00000
  38       13F+3        0.00000   0.00000
  39       13F-3       -0.00067  -0.00009
  40       14F 0        0.12945   0.11609
  41       14F+1        0.00000   0.00000
  42       14F-1       -0.01094   0.00100
  43       14F+2        0.06925   0.02546
  44       14F-2        0.00000   0.00000
  45       14F+3        0.00000   0.00000
  46       14F-3        0.00091   0.00026
  47 2   C  1S          0.20616   0.02651
  48        2S          1.14159   0.23456
  49        3S         -0.04641   0.10645
  50        4S          6.56584  12.38328
  51        5S         -2.23205  19.38975
  52        6PX         0.00000   0.00000
  53        6PY         0.00004   0.00038
  54        6PZ         0.01946   0.00936
  55        7PX         0.00000   0.00000
  56        7PY         0.01305  -0.00169
  57        7PZ         1.05457   0.59024
  58        8PX         0.00000   0.00000
  59        8PY        -0.10792   0.03111
  60        8PZ         2.81517  -0.81799
  61        9PX         0.00000   0.00000
  62        9PY        -0.72042   0.04403
  63        9PZ         7.24684  -0.59138
  64       10D 0        0.06280   0.04549
  65       10D+1        0.00000   0.00000
  66       10D-1        0.00028   0.00012
  67       10D+2        0.01257  -0.02073
  68       10D-2        0.00000   0.00000
  69       11D 0        0.51385   0.20917
  70       11D+1        0.00000   0.00000
  71       11D-1        0.04820  -0.00285
  72       11D+2       -0.05747  -0.02966
  73       11D-2        0.00000   0.00000
  74       12D 0        3.23948   1.62926
  75       12D+1        0.00000   0.00000
  76       12D-1       -0.06637  -0.00316
  77       12D+2        1.51866  -0.75398
  78       12D-2        0.00000   0.00000
  79       13F 0        0.06137  -0.01243
  80       13F+1        0.00000   0.00000
  81       13F-1        0.00236  -0.00036
  82       13F+2       -0.01170  -0.00008
  83       13F-2        0.00000   0.00000
  84       13F+3        0.00000   0.00000
  85       13F-3       -0.00160   0.00040
  86       14F 0       -0.04740  -0.04283
  87       14F+1        0.00000   0.00000
  88       14F-1        0.02315  -0.00197
  89       14F+2        0.23851   0.02174
  90       14F-2        0.00000   0.00000
  91       14F+3        0.00000   0.00000
  92       14F-3        0.01040  -0.00114
  93 3   Cl 1S          0.00693   0.00054
  94        2S          0.11840  -0.01273
  95        3S          0.28134   0.00853
  96        4S         -0.08727   0.06617
  97        5S         -0.78033  -0.57623
  98        6S          4.37288 -10.21021
  99        7PX         0.00000   0.00000
 100        7PY        -0.00487   0.01032
 101        7PZ        -0.01745   0.00584
 102        8PX         0.00000   0.00000
 103        8PY        -0.08525   0.17893
 104        8PZ        -0.27599   0.10388
 105        9PX         0.00000   0.00000
 106        9PY         0.01721  -0.03655
 107        9PZ         0.06499  -0.02109
 108       10PX         0.00000   0.00000
 109       10PY        -0.82651  -2.89804
 110       10PZ         1.47242  -1.35522
 111       11PX         0.00000   0.00000
 112       11PY         1.07805  -1.63934
 113       11PZ        -1.16758  -1.31836
 114       12D 0       -0.01832   0.00178
 115       12D+1        0.00000   0.00000
 116       12D-1        0.00823  -0.00157
 117       12D+2       -0.00050  -0.02331
 118       12D-2        0.00000   0.00000
 119       13D 0        0.07265   0.01004
 120       13D+1        0.00000   0.00000
 121       13D-1       -0.05810  -0.00660
 122       13D+2        0.03846   0.10258
 123       13D-2        0.00000   0.00000
 124       14D 0        0.25519   0.13656
 125       14D+1        0.00000   0.00000
 126       14D-1        0.13175  -0.76445
 127       14D+2        0.42535   0.64209
 128       14D-2        0.00000   0.00000
 129       15F 0        0.00114  -0.01666
 130       15F+1        0.00000   0.00000
 131       15F-1        0.01548   0.00777
 132       15F+2        0.00016  -0.04141
 133       15F-2        0.00000   0.00000
 134       15F+3        0.00000   0.00000
 135       15F-3       -0.00294  -0.03449
 136       16F 0        0.00017   0.05567
 137       16F+1        0.00000   0.00000
 138       16F-1       -0.01961  -0.01980
 139       16F+2        0.02271   0.13886
 140       16F-2        0.00000   0.00000
 141       16F+3        0.00000   0.00000
 142       16F-3        0.04778   0.11671
 143 4   Cl 1S          0.00807   0.00068
 144        2S          0.13940  -0.01083
 145        3S          0.32862   0.01377
 146        4S         -0.10884   0.06572
 147        5S         -0.88349  -0.62792
 148        6S          4.92152 -10.35152
 149        7PX         0.00000   0.00000
 150        7PY         0.00572  -0.01043
 151        7PZ        -0.01676   0.00575
 152        8PX         0.00000   0.00000
 153        8PY         0.08613  -0.17978
 154        8PZ        -0.26065   0.10274
 155        9PX         0.00000   0.00000
 156        9PY        -0.02069   0.03705
 157        9PZ         0.06237  -0.02075
 158       10PX         0.00000   0.00000
 159       10PY         0.79706   2.94083
 160       10PZ         1.56307  -1.38938
 161       11PX         0.00000   0.00000
 162       11PY        -0.62758   1.61995
 163       11PZ        -1.01116  -1.34092
 164       12D 0       -0.01760   0.00180
 165       12D+1        0.00000   0.00000
 166       12D-1       -0.00629   0.00132
 167       12D+2        0.00842  -0.02365
 168       12D-2        0.00000   0.00000
 169       13D 0        0.07575   0.00936
 170       13D+1        0.00000   0.00000
 171       13D-1        0.03531   0.00801
 172       13D+2       -0.00103   0.10414
 173       13D-2        0.00000   0.00000
 174       14D 0        0.30820   0.12989
 175       14D+1        0.00000   0.00000
 176       14D-1       -0.15089   0.77513
 177       14D+2        0.51427   0.64220
 178       14D-2        0.00000   0.00000
 179       15F 0        0.00361  -0.01656
 180       15F+1        0.00000   0.00000
 181       15F-1       -0.01363  -0.00820
 182       15F+2        0.00175  -0.04163
 183       15F-2        0.00000   0.00000
 184       15F+3        0.00000   0.00000
 185       15F-3        0.00033   0.03441
 186       16F 0       -0.00468   0.05475
 187       16F+1        0.00000   0.00000
 188       16F-1        0.00542   0.02177
 189       16F+2        0.01425   0.13928
 190       16F-2        0.00000   0.00000
 191       16F+3        0.00000   0.00000
 192       16F-3       -0.04519  -0.11607
          Condensed to atoms (all electrons):
              1          2          3          4
     1  O    8.035733   0.436395  -0.074661  -0.075959
     2  C    0.436395   4.971939   0.137268   0.133040
     3  Cl  -0.074661   0.137268  17.043104  -0.101552
     4  Cl  -0.075959   0.133040  -0.101552  17.040160
 Mulliken atomic charges:
              1
     1  O   -0.321509
     2  C    0.321358
     3  Cl  -0.004160
     4  Cl   0.004310
 Sum of Mulliken atomic charges =   0.00000
 Mulliken charges with hydrogens summed into heavy atoms:
              1
     1  O   -0.321509
     2  C    0.321358
     3  Cl  -0.004160
     4  Cl   0.004310
 Sum of Mulliken charges with hydrogens summed into heavy atoms =   0.00000
 Electronic spatial extent (au):  <R**2>=            611.9027
 Charge=              0.0000 electrons
 Dipole moment (field-independent basis, Debye):
    X=              0.0000    Y=              0.0370    Z=             -1.2551  Tot=              1.2557
 Quadrupole moment (field-independent basis, Debye-Ang):
   XX=            -35.0696   YY=            -34.3809   ZZ=            -36.2587
   XY=              0.0000   XZ=              0.0000   YZ=             -0.0568
 Traceless Quadrupole moment (field-independent basis, Debye-Ang):
   XX=              0.1668   YY=              0.8555   ZZ=             -1.0223
   XY=              0.0000   XZ=              0.0000   YZ=             -0.0568
 Octapole moment (field-independent basis, Debye-Ang**2):
  XXX=              0.0000  YYY=              0.4879  ZZZ=            106.0948  XYY=              0.0000
  XXY=              0.1638  XXZ=             36.0407  XZZ=              0.0000  YZZ=              0.2459
  YYZ=             29.7060  XYZ=              0.0000
 Hexadecapole moment (field-independent basis, Debye-Ang**3):
 XXXX=            -37.0938 YYYY=           -327.3681 ZZZZ=           -382.8320 XXXY=              0.0000
 XXXZ=              0.0000 YYYX=              0.0000 YYYZ=             -0.6685 ZZZX=              0.0000
 ZZZY=             -0.8413 XXYY=            -64.8642 XXZZ=            -71.0449 YYZZ=           -106.5250
 XXYZ=             -0.2399 YYXZ=              0.0000 ZZXY=              0.0000
 N-N= 1.921563584222D+02 E-N=-2.838554904777D+03  KE= 1.032437948927D+03
 1\1\GINC-TRAPISTA\SP\RQCISD-FC\Aug-CC-pVTZ\C1Cl2O1\BRUNS\27-Nov-2021\0
 \\# qcisd/aug-cc-pvtz nosymm density=current output=wfn\\cl2co-wavefun
 ction\\0,1\O,0,0.,0.,0.683397\C,0,0.,0.,-0.494687\Cl,0,0.,-1.44687,-1.
 469805\Cl,0,0.,1.43687,-1.469805\\Version=EM64L-G09RevB.01\HF=-1031.80
 28105\MP2=-1032.5821485\MP3=-1032.6011984\MP4D=-1032.6208277\MP4DQ=-10
 32.5983381\MP4SDQ=-1032.6072917\QCISD=-1032.6055669\RMSD=5.106e-09\Dip
 ole=0.,0.0145489,-0.4938037\Quadrupole=0.1240079,0.636042,-0.7600499,0
 .,0.,-0.0422595\PG=CS [SG(C1Cl2O1)]\\@

 Writing a WFN file to GAUSSIAN.wfn.


 KEEP CLOSE TO NATURES HEART, YOURSELF;
 AND BREAK CLEAR AWAY, ONCE IN A WHILE, AND
 CLIMB A MOUNTAIN OR SPEND A WEEK IN THE
 WOODS.  WASH YOUR SPIRIT CLEAN...
                                         -- JOHN MUIR
 Job cpu time:  0 days  2 hours  0 minutes 53.6 seconds.
 File lengths (MBytes):  RWF=  18183 Int=      0 D2E=      0 Chk=      3 Scr=      1
 Normal termination of Gaussian 09 at Sat Nov 27 18:04:03 2021.
