 cl2co-wavefunction
GAUSSIAN            192 MOL ORBITALS    372 PRIMITIVES        4 NUCLEI
  O    1    (CENTRE  1)   0.00000000  0.00000000  1.29143317  CHARGE =  8.0
  C    2    (CENTRE  2)   0.00000000  0.00000000 -0.93482295  CHARGE =  6.0
  Cl   3    (CENTRE  3)   0.00000000 -2.73418805 -2.77752892  CHARGE = 17.0
  Cl   4    (CENTRE  4)   0.00000000  2.71529079 -2.77752892  CHARGE = 17.0
CENTRE ASSIGNMENTS    1  1  1  1  1  1  1  1  1  1  1  1  1  1  1  1  1  1  1  1
CENTRE ASSIGNMENTS    1  1  1  1  1  1  1  1  1  1  1  1  1  1  1  1  1  1  1  1
CENTRE ASSIGNMENTS    1  1  1  1  1  1  1  1  1  1  1  1  1  1  1  1  1  1  1  1
CENTRE ASSIGNMENTS    1  1  1  1  1  1  1  1  1  1  1  1  2  2  2  2  2  2  2  2
CENTRE ASSIGNMENTS    2  2  2  2  2  2  2  2  2  2  2  2  2  2  2  2  2  2  2  2
CENTRE ASSIGNMENTS    2  2  2  2  2  2  2  2  2  2  2  2  2  2  2  2  2  2  2  2
CENTRE ASSIGNMENTS    2  2  2  2  2  2  2  2  2  2  2  2  2  2  2  2  2  2  2  2
CENTRE ASSIGNMENTS    2  2  2  2  3  3  3  3  3  3  3  3  3  3  3  3  3  3  3  3
CENTRE ASSIGNMENTS    3  3  3  3  3  3  3  3  3  3  3  3  3  3  3  3  3  3  3  3
CENTRE ASSIGNMENTS    3  3  3  3  3  3  3  3  3  3  3  3  3  3  3  3  3  3  3  3
CENTRE ASSIGNMENTS    3  3  3  3  3  3  3  3  3  3  3  3  3  3  3  3  3  3  3  3
CENTRE ASSIGNMENTS    3  3  3  3  3  3  3  3  3  3  3  3  3  3  3  3  3  3  3  3
CENTRE ASSIGNMENTS    3  3  3  3  3  3  3  3  3  3  3  3  3  3  3  3  3  3  4  4
CENTRE ASSIGNMENTS    4  4  4  4  4  4  4  4  4  4  4  4  4  4  4  4  4  4  4  4
CENTRE ASSIGNMENTS    4  4  4  4  4  4  4  4  4  4  4  4  4  4  4  4  4  4  4  4
CENTRE ASSIGNMENTS    4  4  4  4  4  4  4  4  4  4  4  4  4  4  4  4  4  4  4  4
CENTRE ASSIGNMENTS    4  4  4  4  4  4  4  4  4  4  4  4  4  4  4  4  4  4  4  4
CENTRE ASSIGNMENTS    4  4  4  4  4  4  4  4  4  4  4  4  4  4  4  4  4  4  4  4
CENTRE ASSIGNMENTS    4  4  4  4  4  4  4  4  4  4  4  4
TYPE ASSIGNMENTS      1  1  1  1  1  1  1  1  1  1  1  1  1  1  1  1  2  2  2  3
TYPE ASSIGNMENTS      3  3  4  4  4  2  3  4  2  3  4  2  3  4  5  6  7  8  9 10
TYPE ASSIGNMENTS      5  6  7  8  9 10  5  6  7  8  9 10 11 12 13 17 14 15 18 19
TYPE ASSIGNMENTS     16 20 11 12 13 17 14 15 18 19 16 20  1  1  1  1  1  1  1  1
TYPE ASSIGNMENTS      1  1  1  1  1  1  1  1  2  2  2  3  3  3  4  4  4  2  3  4
TYPE ASSIGNMENTS      2  3  4  2  3  4  5  6  7  8  9 10  5  6  7  8  9 10  5  6
TYPE ASSIGNMENTS      7  8  9 10 11 12 13 17 14 15 18 19 16 20 11 12 13 17 14 15
TYPE ASSIGNMENTS     18 19 16 20  1  1  1  1  1  1  1  1  1  1  1  1  1  1  1  1
TYPE ASSIGNMENTS      1  1  1  1  1  1  1  1  1  1  1  1  1  1  1  2  2  2  2  2
TYPE ASSIGNMENTS      2  3  3  3  3  3  3  4  4  4  4  4  4  2  2  2  2  2  2  3
TYPE ASSIGNMENTS      3  3  3  3  3  4  4  4  4  4  4  2  3  4  2  3  4  2  3  4
TYPE ASSIGNMENTS      5  6  7  8  9 10  5  6  7  8  9 10  5  6  7  8  9 10 11 12
TYPE ASSIGNMENTS     13 17 14 15 18 19 16 20 11 12 13 17 14 15 18 19 16 20  1  1
TYPE ASSIGNMENTS      1  1  1  1  1  1  1  1  1  1  1  1  1  1  1  1  1  1  1  1
TYPE ASSIGNMENTS      1  1  1  1  1  1  1  1  1  2  2  2  2  2  2  3  3  3  3  3
TYPE ASSIGNMENTS      3  4  4  4  4  4  4  2  2  2  2  2  2  3  3  3  3  3  3  4
TYPE ASSIGNMENTS      4  4  4  4  4  2  3  4  2  3  4  2  3  4  5  6  7  8  9 10
TYPE ASSIGNMENTS      5  6  7  8  9 10  5  6  7  8  9 10 11 12 13 17 14 15 18 19
TYPE ASSIGNMENTS     16 20 11 12 13 17 14 15 18 19 16 20
EXPONENTS  0.1533000D+05 0.2299000D+04 0.5224000D+03 0.1473000D+03 0.4755000D+02
EXPONENTS  0.1676000D+02 0.6207000D+01 0.5224000D+03 0.1473000D+03 0.4755000D+02
EXPONENTS  0.1676000D+02 0.6207000D+01 0.6882000D+00 0.1752000D+01 0.2384000D+00
EXPONENTS  0.7376000D-01 0.3446000D+02 0.7749000D+01 0.2280000D+01 0.3446000D+02
EXPONENTS  0.7749000D+01 0.2280000D+01 0.3446000D+02 0.7749000D+01 0.2280000D+01
EXPONENTS  0.7156000D+00 0.7156000D+00 0.7156000D+00 0.2140000D+00 0.2140000D+00
EXPONENTS  0.2140000D+00 0.5974000D-01 0.5974000D-01 0.5974000D-01 0.2314000D+01
EXPONENTS  0.2314000D+01 0.2314000D+01 0.2314000D+01 0.2314000D+01 0.2314000D+01
EXPONENTS  0.6450000D+00 0.6450000D+00 0.6450000D+00 0.6450000D+00 0.6450000D+00
EXPONENTS  0.6450000D+00 0.2140000D+00 0.2140000D+00 0.2140000D+00 0.2140000D+00
EXPONENTS  0.2140000D+00 0.2140000D+00 0.1428000D+01 0.1428000D+01 0.1428000D+01
EXPONENTS  0.1428000D+01 0.1428000D+01 0.1428000D+01 0.1428000D+01 0.1428000D+01
EXPONENTS  0.1428000D+01 0.1428000D+01 0.5000000D+00 0.5000000D+00 0.5000000D+00
EXPONENTS  0.5000000D+00 0.5000000D+00 0.5000000D+00 0.5000000D+00 0.5000000D+00
EXPONENTS  0.5000000D+00 0.5000000D+00 0.8236000D+04 0.1235000D+04 0.2808000D+03
EXPONENTS  0.7927000D+02 0.2559000D+02 0.8997000D+01 0.3319000D+01 0.2808000D+03
EXPONENTS  0.7927000D+02 0.2559000D+02 0.8997000D+01 0.3319000D+01 0.3643000D+00
EXPONENTS  0.9059000D+00 0.1285000D+00 0.4402000D-01 0.1871000D+02 0.4133000D+01
EXPONENTS  0.1200000D+01 0.1871000D+02 0.4133000D+01 0.1200000D+01 0.1871000D+02
EXPONENTS  0.4133000D+01 0.1200000D+01 0.3827000D+00 0.3827000D+00 0.3827000D+00
EXPONENTS  0.1209000D+00 0.1209000D+00 0.1209000D+00 0.3569000D-01 0.3569000D-01
EXPONENTS  0.3569000D-01 0.1097000D+01 0.1097000D+01 0.1097000D+01 0.1097000D+01
EXPONENTS  0.1097000D+01 0.1097000D+01 0.3180000D+00 0.3180000D+00 0.3180000D+00
EXPONENTS  0.3180000D+00 0.3180000D+00 0.3180000D+00 0.1000000D+00 0.1000000D+00
EXPONENTS  0.1000000D+00 0.1000000D+00 0.1000000D+00 0.1000000D+00 0.7610000D+00
EXPONENTS  0.7610000D+00 0.7610000D+00 0.7610000D+00 0.7610000D+00 0.7610000D+00
EXPONENTS  0.7610000D+00 0.7610000D+00 0.7610000D+00 0.7610000D+00 0.2680000D+00
EXPONENTS  0.2680000D+00 0.2680000D+00 0.2680000D+00 0.2680000D+00 0.2680000D+00
EXPONENTS  0.2680000D+00 0.2680000D+00 0.2680000D+00 0.2680000D+00 0.4561000D+06
EXPONENTS  0.6833000D+05 0.1555000D+05 0.4405000D+04 0.1439000D+04 0.5204000D+03
EXPONENTS  0.2031000D+03 0.8396000D+02 0.3620000D+02 0.1583000D+02 0.6334000D+01
EXPONENTS  0.4405000D+04 0.1439000D+04 0.5204000D+03 0.2031000D+03 0.8396000D+02
EXPONENTS  0.3620000D+02 0.1583000D+02 0.6334000D+01 0.2694000D+01 0.1439000D+04
EXPONENTS  0.2031000D+03 0.8396000D+02 0.3620000D+02 0.1583000D+02 0.6334000D+01
EXPONENTS  0.2694000D+01 0.4313000D+00 0.9768000D+00 0.1625000D+00 0.5910000D-01
EXPONENTS  0.6633000D+03 0.1568000D+03 0.4998000D+02 0.1842000D+02 0.7240000D+01
EXPONENTS  0.2922000D+01 0.6633000D+03 0.1568000D+03 0.4998000D+02 0.1842000D+02
EXPONENTS  0.7240000D+01 0.2922000D+01 0.6633000D+03 0.1568000D+03 0.4998000D+02
EXPONENTS  0.1842000D+02 0.7240000D+01 0.2922000D+01 0.1568000D+03 0.4998000D+02
EXPONENTS  0.1842000D+02 0.7240000D+01 0.2922000D+01 0.3818000D+00 0.1568000D+03
EXPONENTS  0.4998000D+02 0.1842000D+02 0.7240000D+01 0.2922000D+01 0.3818000D+00
EXPONENTS  0.1568000D+03 0.4998000D+02 0.1842000D+02 0.7240000D+01 0.2922000D+01
EXPONENTS  0.3818000D+00 0.1022000D+01 0.1022000D+01 0.1022000D+01 0.1301000D+00
EXPONENTS  0.1301000D+00 0.1301000D+00 0.4190000D-01 0.4190000D-01 0.4190000D-01
EXPONENTS  0.1046000D+01 0.1046000D+01 0.1046000D+01 0.1046000D+01 0.1046000D+01
EXPONENTS  0.1046000D+01 0.3440000D+00 0.3440000D+00 0.3440000D+00 0.3440000D+00
EXPONENTS  0.3440000D+00 0.3440000D+00 0.1350000D+00 0.1350000D+00 0.1350000D+00
EXPONENTS  0.1350000D+00 0.1350000D+00 0.1350000D+00 0.7060000D+00 0.7060000D+00
EXPONENTS  0.7060000D+00 0.7060000D+00 0.7060000D+00 0.7060000D+00 0.7060000D+00
EXPONENTS  0.7060000D+00 0.7060000D+00 0.7060000D+00 0.3120000D+00 0.3120000D+00
EXPONENTS  0.3120000D+00 0.3120000D+00 0.3120000D+00 0.3120000D+00 0.3120000D+00
EXPONENTS  0.3120000D+00 0.3120000D+00 0.3120000D+00 0.4561000D+06 0.6833000D+05
EXPONENTS  0.1555000D+05 0.4405000D+04 0.1439000D+04 0.5204000D+03 0.2031000D+03
EXPONENTS  0.8396000D+02 0.3620000D+02 0.1583000D+02 0.6334000D+01 0.4405000D+04
EXPONENTS  0.1439000D+04 0.5204000D+03 0.2031000D+03 0.8396000D+02 0.3620000D+02
EXPONENTS  0.1583000D+02 0.6334000D+01 0.2694000D+01 0.1439000D+04 0.2031000D+03
EXPONENTS  0.8396000D+02 0.3620000D+02 0.1583000D+02 0.6334000D+01 0.2694000D+01
EXPONENTS  0.4313000D+00 0.9768000D+00 0.1625000D+00 0.5910000D-01 0.6633000D+03
EXPONENTS  0.1568000D+03 0.4998000D+02 0.1842000D+02 0.7240000D+01 0.2922000D+01
EXPONENTS  0.6633000D+03 0.1568000D+03 0.4998000D+02 0.1842000D+02 0.7240000D+01
EXPONENTS  0.2922000D+01 0.6633000D+03 0.1568000D+03 0.4998000D+02 0.1842000D+02
EXPONENTS  0.7240000D+01 0.2922000D+01 0.1568000D+03 0.4998000D+02 0.1842000D+02
EXPONENTS  0.7240000D+01 0.2922000D+01 0.3818000D+00 0.1568000D+03 0.4998000D+02
EXPONENTS  0.1842000D+02 0.7240000D+01 0.2922000D+01 0.3818000D+00 0.1568000D+03
EXPONENTS  0.4998000D+02 0.1842000D+02 0.7240000D+01 0.2922000D+01 0.3818000D+00
EXPONENTS  0.1022000D+01 0.1022000D+01 0.1022000D+01 0.1301000D+00 0.1301000D+00
EXPONENTS  0.1301000D+00 0.4190000D-01 0.4190000D-01 0.4190000D-01 0.1046000D+01
EXPONENTS  0.1046000D+01 0.1046000D+01 0.1046000D+01 0.1046000D+01 0.1046000D+01
EXPONENTS  0.3440000D+00 0.3440000D+00 0.3440000D+00 0.3440000D+00 0.3440000D+00
EXPONENTS  0.3440000D+00 0.1350000D+00 0.1350000D+00 0.1350000D+00 0.1350000D+00
EXPONENTS  0.1350000D+00 0.1350000D+00 0.7060000D+00 0.7060000D+00 0.7060000D+00
EXPONENTS  0.7060000D+00 0.7060000D+00 0.7060000D+00 0.7060000D+00 0.7060000D+00
EXPONENTS  0.7060000D+00 0.7060000D+00 0.3120000D+00 0.3120000D+00 0.3120000D+00
EXPONENTS  0.3120000D+00 0.3120000D+00 0.3120000D+00 0.3120000D+00 0.3120000D+00
EXPONENTS  0.3120000D+00 0.3120000D+00
MO    1     MO 0.0        OCC NO =    2.0000388  ORB. ENERGY =    0.000000
 -0.31774663D-03 -0.59222747D-03 -0.10042049D-02 -0.15197573D-02 -0.18957775D-02
 -0.16268591D-02 -0.62300061D-03 -0.56193466D-07 -0.60291902D-06 -0.22224730D-05
 -0.64983808D-05 -0.78308648D-05  0.94331065D-05 -0.30146296D-04 -0.31697664D-05
 -0.13586246D-04 -0.10222925D-12 -0.99127989D-13 -0.66871156D-13  0.86179153D-03
  0.83564789D-03  0.56372313D-03 -0.82950731D-04 -0.80434306D-04 -0.54260508D-04
 -0.35504676D-13  0.93690148D-03 -0.37823104D-04 -0.91055154D-14  0.75796528D-03
 -0.31055136D-04  0.10402827D-14  0.19489421D-04 -0.55477076D-06 -0.73252814D-05
  0.11078430D-04 -0.37531486D-05 -0.31771933D-13 -0.25085546D-13  0.19254177D-03
  0.40027369D-05 -0.13636636D-04  0.96338989D-05 -0.12271144D-13  0.11465392D-13
  0.78171822D-04 -0.35825559D-05 -0.11198367D-05  0.47023926D-05  0.58987292D-13
  0.11342783D-14 -0.11166901D-03  0.23271997D-14  0.14791304D-03 -0.26997580D-05
 -0.14833941D-13 -0.22157509D-03  0.89145158D-06  0.78523423D-14 -0.22216402D-03
  0.72078224D-05  0.28143928D-12 -0.17455558D-15  0.10861129D-04 -0.12316782D-05
  0.44479175D-14  0.20108447D-03 -0.21273348D-05 -0.39242507D-14 -0.23366785D-03
  0.58223693D-05 -0.90118544D-13  0.19521135D-03  0.36391328D-03  0.61506302D-03
  0.92455444D-03  0.11356495D-02  0.95844814D-03  0.36040153D-03  0.22229456D-06
  0.16615141D-05  0.62094576D-05  0.17323420D-04  0.23208606D-04 -0.27405037D-04
  0.55471512D-05  0.71680034D-07 -0.47002220D-05  0.99556060D-13  0.93340134D-13
  0.66463736D-13 -0.11006905D-02 -0.10319673D-02 -0.73482220D-03 -0.64210035D-04
 -0.60200989D-04 -0.42866690D-04  0.29135680D-13 -0.13708879D-03 -0.51290007D-04
  0.17817156D-14 -0.73184433D-04  0.13054654D-04 -0.88668319D-15  0.88100585D-05
  0.99883037D-06  0.40353024D-05 -0.42998468D-04  0.38963165D-04 -0.44201705D-12
 -0.21673762D-13 -0.18831971D-03 -0.44356705D-05  0.17111970D-04 -0.12676299D-04
  0.19962465D-13  0.55351781D-14 -0.65283738D-04  0.72343289D-07 -0.56387144D-05
  0.55663711D-05 -0.26667827D-13 -0.13448799D-14 -0.53620466D-04 -0.34521713D-14
 -0.25589137D-03 -0.90526161D-05  0.29269421D-14 -0.39266142D-04  0.12730889D-04
  0.74295718D-14  0.80694025D-03  0.14426960D-04  0.12950630D-12  0.90397661D-15
  0.25990494D-03  0.47920647D-05 -0.42139001D-14 -0.27163901D-04 -0.55507478D-05
  0.15019702D-14 -0.75255093D-03 -0.88254462D-05 -0.13251229D-12  0.36039345D-03
  0.67425768D-03  0.11649677D-02  0.18885495D-02  0.28679437D-02  0.39861719D-02
  0.47392530D-02  0.42218912D-02  0.20966805D-02  0.33754782D-03  0.35613288D-05
  0.20093770D-05  0.67029453D-04  0.23358422D-03  0.84117461D-03  0.18542647D-02
  0.26102063D-02 -0.12451535D-03 -0.34159082D-02 -0.20198051D-02 -0.27706240D-06
 -0.33559023D-05 -0.69983805D-05 -0.20070137D-04 -0.10422143D-05  0.86552163D-04
  0.22363417D-03 -0.18220659D-03 -0.10160944D-03  0.10251911D-03  0.64047293D-04
 -0.32391398D-08 -0.42667049D-08 -0.47068434D-08 -0.39094020D-08 -0.20760009D-08
 -0.53561909D-09  0.44726644D+01  0.58915453D+01  0.64992967D+01  0.53981748D+01
  0.28665806D+01  0.73959278D+00 -0.63954577D+01 -0.84243139D+01 -0.92933369D+01
 -0.77188439D+01 -0.40989203D+01 -0.10575429D+01  0.14051790D-12 -0.13584367D-11
 -0.19155375D-11 -0.27397254D-11  0.13873584D-13  0.25125866D-11 -0.22964584D-03
  0.22200682D-02  0.31305279D-02  0.44774831D-02 -0.22673344D-04 -0.41062743D-02
  0.31657382D-03 -0.30604320D-02 -0.43155286D-02 -0.61723475D-02  0.31255899D-04
  0.56606248D-02 -0.21202692D-10  0.28705197D-01 -0.41244588D-01  0.16564679D-12
 -0.34037369D-03  0.54413547D-03  0.63829585D-14 -0.10546122D-04  0.16897219D-04
  0.11279088D-04  0.73050745D-03 -0.74178654D-03 -0.34597012D-12 -0.20253643D-12
 -0.66536793D-03 -0.57882561D-04 -0.41837531D-03  0.47625787D-03  0.18623676D-12
  0.12525082D-12  0.32241240D-03 -0.44995580D-05 -0.46930826D-06  0.49688663D-05
 -0.78972780D-14 -0.13103998D-13  0.52868267D-05 -0.77274490D-14  0.18080701D-04
  0.21288764D-05 -0.14744819D-13 -0.24414998D-04 -0.36188556D-04  0.37927166D-13
 -0.29827106D-04  0.29801927D-04 -0.45550712D-14 -0.76616621D-14 -0.72879615D-04
  0.43277436D-04  0.35350947D-13 -0.11015352D-04 -0.49233641D-04 -0.12365961D-13
  0.22965420D-03 -0.80598667D-04  0.59599013D-13 -0.11506981D-03 -0.21528334D-03
 -0.37196185D-03 -0.60299387D-03 -0.91570405D-03 -0.12727425D-02 -0.15131933D-02
 -0.13480052D-02 -0.66944786D-03 -0.10777544D-03 -0.11370946D-05 -0.83234034D-06
 -0.27765480D-04 -0.96757140D-04 -0.34843813D-03 -0.76808849D-03 -0.10812207D-02
  0.51577751D-04  0.14149650D-02  0.83665997D-03  0.28373914D-06  0.34367739D-05
  0.71670296D-05  0.20553793D-04  0.10673299D-05 -0.88637924D-04 -0.22902337D-03
  0.18659746D-03  0.45250650D-04 -0.85921045D-04 -0.47825386D-04  0.27731704D-08
  0.36529141D-08  0.40297361D-08  0.33470114D-08  0.17773559D-08  0.45856712D-09
  0.48935685D+01  0.64459744D+01  0.71109188D+01  0.59061749D+01  0.31363427D+01
  0.80919282D+00  0.70914411D+01  0.93410869D+01  0.10304681D+02  0.85588444D+01
  0.45449839D+01  0.11726296D+01 -0.12219867D-12  0.11813381D-11  0.16658100D-11
  0.23825490D-11 -0.12064893D-13 -0.21850221D-11 -0.24820407D-03  0.23994773D-02
  0.33835134D-02  0.48393192D-02 -0.24505631D-04 -0.44381122D-02 -0.35069245D-03
  0.33902690D-02  0.47806332D-02  0.68375701D-02 -0.34624493D-04 -0.62706967D-02
  0.18119219D-10  0.31412288D-01  0.45758926D-01 -0.14389434D-12 -0.35785793D-03
 -0.56888578D-03 -0.46902456D-14 -0.11623944D-04 -0.17397989D-04 -0.13917784D-04
 -0.77724339D-03  0.79116118D-03 -0.32149890D-12  0.17634785D-12 -0.70050650D-03
  0.59649570D-04  0.45226589D-03 -0.51191546D-03  0.16274243D-12 -0.11111806D-12
  0.37127927D-03  0.48273541D-05 -0.32076270D-05 -0.16197271D-05 -0.76691895D-14
  0.14068158D-13  0.42039672D-05  0.85690784D-14  0.13671487D-04 -0.33982204D-05
  0.17161053D-13 -0.19338516D-04  0.37514511D-04 -0.42868288D-13 -0.21675946D-04
 -0.27319850D-04 -0.34966950D-14  0.54751314D-14 -0.78031749D-04 -0.42718751D-04
 -0.31997737D-13 -0.10303785D-04  0.53880982D-04  0.15572343D-13  0.24439903D-03
  0.74275271D-04  0.50903266D-13
MO    2     MO 0.0        OCC NO =    2.0000378  ORB. ENERGY =    0.000000
  0.55301379D-02  0.10307268D-01  0.17477421D-01  0.26450218D-01  0.32994562D-01
  0.28314243D-01  0.10842851D-01  0.85938152D-06  0.92205997D-05  0.33988867D-04
  0.99381452D-04  0.11975948D-03 -0.14426299D-03  0.54332734D-03  0.20137297D-03
  0.29948982D-03 -0.16352762D-12 -0.15856678D-12 -0.10696822D-12  0.10563881D-04
  0.10243411D-04  0.69101445D-05  0.15952750D-02  0.15468801D-02  0.10435162D-02
 -0.46984187D-13  0.38869482D-04  0.59380913D-03 -0.17154505D-13  0.33922500D-04
  0.50307708D-03 -0.11185226D-14  0.10205085D-05  0.10499524D-04  0.13247603D-03
 -0.21774849D-03  0.85272462D-04  0.19722574D-13 -0.12570797D-13  0.11369494D-04
 -0.75430299D-04  0.24912928D-03 -0.17369899D-03  0.39812999D-14  0.16159406D-13
 -0.11135885D-05  0.58783925D-04  0.22188132D-04 -0.80972057D-04 -0.21785183D-13
  0.40119851D-14 -0.45209425D-05  0.39900638D-14  0.60010284D-05  0.36002661D-04
 -0.92718343D-14 -0.14075330D-04 -0.41057454D-04 -0.26983570D-14 -0.39277553D-05
 -0.66950528D-04 -0.12270513D-12  0.21952263D-15  0.14492893D-06  0.34059787D-04
  0.56396883D-14  0.99395621D-05  0.33114569D-04 -0.62982562D-14 -0.10374349D-04
 -0.13529393D-03  0.32931521D-13 -0.38953621D-02 -0.72617397D-02 -0.12273329D-01
 -0.18449103D-01 -0.22661419D-01 -0.19125438D-01 -0.71916642D-02 -0.41873601D-05
 -0.31297922D-04 -0.11696748D-03 -0.32632106D-03 -0.43718025D-03  0.51622836D-03
 -0.10476046D-03 -0.18648366D-04  0.84943267D-04  0.90023622D-13  0.84402868D-13
  0.60099870D-13 -0.26583306D-04 -0.24923539D-04 -0.17747045D-04  0.98698278D-03
  0.92535909D-03  0.65891080D-03  0.27775833D-13 -0.10305214D-04  0.84055617D-03
  0.56076268D-15 -0.12032795D-06 -0.20640373D-03  0.21361438D-15  0.50509678D-06
 -0.21768818D-04 -0.70067771D-04  0.68856272D-03 -0.61849495D-03  0.17853307D-12
 -0.25873356D-13 -0.12842366D-04  0.83425100D-04 -0.17187780D-03  0.88452696D-04
 -0.91285105D-14  0.11715249D-13 -0.44434586D-05 -0.49819851D-07  0.11549371D-03
 -0.11544389D-03  0.91336986D-14  0.11873487D-14 -0.34563177D-05 -0.42758536D-14
 -0.10726569D-04  0.13981205D-03  0.20469692D-14 -0.98582137D-06 -0.18162647D-03
  0.10780591D-13  0.33165529D-04 -0.23780969D-03 -0.54567011D-13  0.12851425D-14
  0.11999554D-04 -0.70582318D-04 -0.45535074D-14 -0.16796623D-05  0.96631126D-04
  0.69808000D-15 -0.34319000D-04  0.11511583D-03  0.52219692D-13 -0.13632450D-02
 -0.25504859D-02 -0.44066739D-02 -0.71437361D-02 -0.10848449D-01 -0.15078323D-01
 -0.17926971D-01 -0.15969968D-01 -0.79310240D-02 -0.12768278D-02 -0.13471287D-04
 -0.66873924D-05 -0.22308022D-03 -0.77738989D-03 -0.27995069D-02 -0.61711645D-02
 -0.86870079D-02  0.41439859D-03  0.11368458D-01  0.67220983D-02  0.95502570D-07
  0.11567693D-05  0.24123205D-05  0.69181153D-05  0.35924809D-06 -0.29834268D-04
 -0.77086019D-04  0.62806060D-04  0.29598066D-03 -0.17991291D-03 -0.16252068D-03
  0.98220705D-09  0.12937965D-08  0.14272600D-08  0.11854512D-08  0.62950748D-09
  0.16241622D-09  0.43451825D+01  0.57236218D+01  0.63140508D+01  0.52443136D+01
  0.27848760D+01  0.71851258D+00 -0.74358953D+01 -0.97948136D+01 -0.10805213D+02
 -0.89745751D+01 -0.47657484D+01 -0.12295880D+01 -0.44282099D-13  0.42809084D-12
  0.60365278D-12  0.86338316D-12 -0.43720508D-14 -0.79180378D-12 -0.18791928D-03
  0.18166826D-02  0.25617122D-02  0.36639261D-02 -0.18553606D-04 -0.33601658D-02
  0.34901801D-03 -0.33740816D-02 -0.47578073D-02 -0.68049230D-02  0.34459172D-04
  0.62407562D-02  0.63894228D-11  0.27958320D-01 -0.48146246D-01 -0.52004257D-13
 -0.18273492D-03  0.24881838D-03 -0.20146970D-14 -0.12114263D-04  0.80394533D-05
  0.23416634D-04  0.46293107D-03 -0.48634770D-03  0.11775240D-12  0.57710122D-13
 -0.43044342D-03  0.28909027D-05 -0.29673553D-03  0.29384463D-03 -0.56624554D-13
 -0.37756204D-13  0.47014284D-03 -0.98382117D-06  0.38296808D-04 -0.37312987D-04
  0.35480174D-14  0.48573696D-14 -0.15902758D-04  0.31529223D-14 -0.34319823D-04
  0.10120841D-04  0.61430403D-14  0.53576017D-04  0.22494053D-05 -0.15601807D-13
  0.49383452D-04 -0.32611927D-04  0.67364595D-15  0.16479943D-14 -0.51730871D-04
 -0.11813067D-04 -0.10902758D-13  0.13414315D-04 -0.42166961D-04  0.59587755D-14
  0.14177830D-03  0.77606162D-04 -0.17427147D-13 -0.15331096D-02 -0.28682845D-02
 -0.49557593D-02 -0.80338682D-02 -0.12200200D-01 -0.16957130D-01 -0.20160728D-01
 -0.17959877D-01 -0.89192547D-02 -0.14359246D-02 -0.15149852D-04 -0.75090697D-05
 -0.25048999D-03 -0.87290748D-03 -0.31434812D-02 -0.69294130D-02 -0.97543771D-02
  0.46531558D-03  0.12765296D-01  0.75480398D-02  0.10418325D-06  0.12619136D-05
  0.26315877D-05  0.75469354D-05  0.39190185D-06 -0.32546046D-04 -0.84092731D-04
  0.68514799D-04  0.34462972D-03 -0.19542423D-03 -0.17005200D-03 -0.14247223D-08
 -0.18766926D-08 -0.20702857D-08 -0.17195344D-08 -0.91312048D-09 -0.23558986D-09
 -0.38940349D+01 -0.51293549D+01 -0.56584814D+01 -0.46998119D+01 -0.24957305D+01
 -0.64391152D+00 -0.67586741D+01 -0.89027549D+01 -0.98211322D+01 -0.81572193D+01
 -0.43317098D+01 -0.11176038D+01  0.61129719D-13 -0.59096279D-12 -0.83331922D-12
 -0.11918669D-11  0.60354464D-14  0.10930544D-11  0.16557088D-03 -0.16006327D-02
 -0.22570592D-02 -0.32281918D-02  0.16347109D-04  0.29605563D-02  0.31645533D-03
 -0.30592865D-02 -0.43139133D-02 -0.61700371D-02  0.31244200D-04  0.56585060D-02
 -0.93325994D-11 -0.25059003D-01 -0.43782767D-01  0.77710392D-13  0.14824899D-03
  0.19233142D-03  0.27289117D-14  0.10933863D-04  0.60396483D-05  0.22378313D-04
  0.39301563D-03 -0.41539395D-03  0.14484861D-12 -0.88057390D-13  0.35764314D-03
  0.80021079D-05 -0.25954750D-03  0.25154539D-03 -0.81673247D-13  0.55427510D-13
 -0.43999875D-03 -0.72203986D-06  0.38298241D-04 -0.37576201D-04  0.12560814D-14
 -0.42082463D-14  0.15323992D-04 -0.25665476D-14  0.36264827D-04  0.99844134D-05
 -0.70236054D-14 -0.56227778D-04  0.58320427D-05  0.14723248D-13 -0.52566703D-04
 -0.35785283D-04  0.40096426D-14 -0.40669503D-14  0.45263111D-04 -0.15577828D-04
  0.16385859D-13 -0.14249312D-04 -0.37975827D-04 -0.41850085D-14 -0.12154002D-03
  0.84709311D-04 -0.28125891D-13
MO    3     MO 0.0        OCC NO =    2.0000335  ORB. ENERGY =    0.000000
  0.66416666D-12  0.12378975D-11  0.20990291D-11  0.31766573D-11  0.39626296D-11
  0.34005258D-11  0.13022207D-11  0.29641049D-15  0.31802901D-14  0.11723148D-13
  0.34277797D-13  0.41306412D-13 -0.49757951D-13  0.69292899D-13 -0.48093124D-13
  0.42426998D-13  0.35923428D-04  0.34833641D-04  0.23498568D-04 -0.50033287D-12
 -0.48515458D-12 -0.32728242D-12  0.13984701D-12  0.13560456D-12  0.91478036D-13
  0.10541859D-04 -0.40540494D-12  0.14023264D-12  0.43389946D-05 -0.31389546D-12
  0.12552633D-12  0.19496036D-06 -0.15345509D-13  0.30004524D-14  0.27241690D-13
 -0.59817707D-13  0.32576017D-13 -0.11672677D-03  0.69958619D-05 -0.12180981D-12
 -0.90325955D-14  0.66140370D-13 -0.57107774D-13 -0.32875901D-04 -0.35392602D-05
 -0.11243500D-13  0.10607401D-13  0.10546152D-13 -0.21153553D-13  0.15960303D-03
 -0.15017210D-05  0.46563613D-13  0.55330937D-06 -0.64925070D-13  0.31589916D-13
  0.24314847D-05  0.81834770D-13 -0.53227298D-13 -0.40914128D-05  0.11294044D-12
 -0.41542451D-13  0.78680862D-03 -0.33110550D-06 -0.95801228D-15  0.10796882D-13
 -0.13357384D-05 -0.75704983D-13  0.10008791D-13  0.23290549D-05  0.78579020D-13
 -0.42399438D-13 -0.24412412D-03 -0.73641035D-11 -0.13728172D-10 -0.23202482D-10
 -0.34877658D-10 -0.42840955D-10 -0.36156255D-10 -0.13595696D-10 -0.21691605D-14
 -0.16213131D-13 -0.60592171D-13 -0.16904272D-12 -0.22647064D-12  0.26741960D-12
 -0.51502380D-12  0.70441356D-13  0.18895574D-13 -0.46209960D-04 -0.43324775D-04
 -0.30849821D-04  0.65101436D-12  0.61036734D-12  0.43461791D-12  0.13772298D-13
  0.12912405D-13  0.91944016D-14 -0.81637270D-05  0.26835429D-13  0.20484676D-12
 -0.49083377D-06 -0.38965172D-13 -0.40196910D-13 -0.64655202D-07  0.17306349D-15
 -0.41543391D-14 -0.63697840D-14  0.93230122D-13 -0.86860338D-13 -0.12131069D-02
  0.11727379D-04  0.73009445D-13  0.10650654D-13 -0.45774629D-13  0.35123975D-13
  0.51015451D-04 -0.65401072D-05  0.12413111D-12  0.49804773D-15  0.19090834D-13
 -0.19588882D-13 -0.72316650D-04 -0.95002671D-07  0.40128273D-13  0.16023763D-05
  0.93667245D-13  0.33372887D-13 -0.91858942D-06  0.13294250D-13 -0.33358479D-13
 -0.38885395D-05 -0.29429599D-12 -0.66760182D-13  0.35436464D-03 -0.54587793D-06
 -0.99451793D-13 -0.90656282D-14  0.98301703D-06  0.20586848D-13  0.18771461D-13
  0.65461677D-06  0.27776853D-12  0.84254239D-14 -0.35910937D-03  0.25777406D-10
  0.48226776D-10  0.83325172D-10  0.13507989D-09  0.20513178D-09  0.28511388D-09
  0.33897855D-09  0.30197387D-09  0.14996661D-09  0.24143356D-10  0.25472666D-12
  0.11151937D-12  0.37200994D-11  0.12963801D-10  0.46684748D-10  0.10291072D-09
  0.14486508D-09 -0.69105363D-11 -0.18958111D-09 -0.11209812D-09  0.25799873D-14
  0.31249947D-13  0.65168470D-13  0.18689183D-12  0.97050323D-14 -0.80596819D-12
 -0.20824670D-11  0.16966961D-11 -0.71989061D-11 -0.19876024D-13 -0.42905052D-13
 -0.81944494D+01 -0.10794007D+02 -0.11907479D+02 -0.98900938D+01 -0.52519143D+01
 -0.13550213D+01 -0.65131593D-09 -0.85793544D-09 -0.94643709D-09 -0.78609011D-09
 -0.41743566D-09 -0.10770058D-09  0.15144780D-08  0.19949218D-08  0.22007110D-08
  0.18278628D-08  0.97064588D-09  0.25043171D-09  0.35824552D-03 -0.34632872D-02
 -0.48835965D-02 -0.69848349D-02  0.35370221D-04  0.64057524D-02  0.38653773D-13
 -0.37367980D-12 -0.52692753D-12 -0.75364576D-12  0.38163560D-14  0.69116424D-12
 -0.76956254D-13  0.74396355D-12  0.10490663D-11  0.15004423D-11 -0.75980284D-14
 -0.13760471D-11 -0.53563318D-01 -0.41438739D-11  0.97922606D-11  0.42386944D-03
  0.47209615D-13 -0.19728810D-12  0.15201481D-04  0.75358953D-15 -0.50755284D-14
  0.35318759D-13 -0.24990145D-12  0.21458269D-12 -0.90734744D-03 -0.51074009D-03
  0.24123600D-13  0.27649441D-13  0.11060990D-12 -0.13825934D-12  0.47093741D-03
  0.31782911D-03 -0.62864569D-13  0.15489419D-14  0.48748158D-14 -0.64237577D-14
 -0.21500560D-04 -0.36911043D-04 -0.13136536D-13 -0.22562311D-04 -0.10286347D-13
 -0.17161435D-14 -0.43309867D-04  0.23446721D-13  0.20789055D-13  0.11099680D-03
  0.74123191D-14 -0.15640625D-13 -0.99165456D-05 -0.17489954D-04  0.19991580D-13
 -0.14919297D-13  0.90519377D-04  0.55988471D-14  0.11389448D-13 -0.38049514D-04
 -0.65573588D-13  0.33368441D-13  0.14770967D-03 -0.57110245D-11 -0.10684717D-10
 -0.18460822D-10 -0.29927161D-10 -0.45447266D-10 -0.63167424D-10 -0.75101227D-10
 -0.66902783D-10 -0.33225337D-10 -0.53489981D-11 -0.56435089D-13 -0.39513189D-13
 -0.13180939D-11 -0.45932932D-11 -0.16541192D-10 -0.36463000D-10 -0.51328136D-10
  0.24485194D-11  0.67171780D-10  0.39718253D-10 -0.12321616D-14 -0.14924486D-13
 -0.31123443D-13 -0.89256615D-13 -0.46349718D-14  0.38491781D-12  0.99455371D-12
 -0.81031555D-12  0.24138807D-11  0.59983711D-13 -0.25868843D-13  0.82338328D+01
  0.10845884D+02  0.11964708D+02  0.99376266D+01  0.52771555D+01  0.13615337D+01
 -0.15934839D-08 -0.20989911D-08 -0.23155158D-08 -0.19232171D-08 -0.10212817D-08
 -0.26349601D-09 -0.41024541D-08 -0.54038918D-08 -0.59613386D-08 -0.49513584D-08
 -0.26293087D-08 -0.67837539D-09 -0.36037010D-03  0.34838262D-02  0.49125587D-02
  0.70262584D-02 -0.35579984D-04 -0.64437417D-02  0.86875408D-13 -0.83985554D-12
 -0.11842840D-11 -0.16938394D-11  0.85773642D-14  0.15534105D-11  0.19421080D-12
 -0.18775050D-11 -0.26474781D-11 -0.37865940D-11  0.19174779D-13  0.34726638D-11
  0.53842741D-01 -0.95921400D-11 -0.26922690D-10 -0.42459009D-03  0.12453050D-12
  0.25953198D-12 -0.15062017D-04  0.52838863D-14  0.71348375D-14  0.35554641D-13
  0.32737588D-12 -0.36293052D-12 -0.91046557D-03  0.51657921D-03  0.34529476D-12
 -0.54545037D-13 -0.17708626D-12  0.23163130D-12  0.48003422D-03 -0.32613542D-03
 -0.28168752D-12 -0.67288841D-16  0.45464219D-14 -0.44791330D-14 -0.21380544D-04
  0.37057342D-04 -0.11726968D-14  0.23449039D-04 -0.36446103D-14  0.30421908D-14
  0.40905048D-04  0.85037964D-14 -0.17575639D-13 -0.11125216D-03  0.24300345D-14
  0.84490670D-14 -0.74570074D-05  0.17887078D-04  0.35768956D-13  0.10954456D-13
 -0.91162347D-04  0.99305399D-14 -0.33196656D-13  0.37501112D-04 -0.11723741D-12
  0.33328755D-15  0.15102906D-03
MO    4     MO 0.0        OCC NO =    2.0000299  ORB. ENERGY =    0.000000
 -0.40226137D-11 -0.74974905D-11 -0.12713049D-10 -0.19239847D-10 -0.24000193D-10
 -0.20595736D-10 -0.78870729D-11 -0.35418713D-15 -0.38001954D-14 -0.14008236D-13
 -0.40959260D-13 -0.49357900D-13  0.59456821D-13 -0.37356182D-12  0.11663777D-13
 -0.26660197D-14 -0.52113573D-02 -0.50532636D-02 -0.34089018D-02 -0.11775957D-12
 -0.11418717D-12 -0.77029988D-13  0.63734409D-13  0.61800938D-13  0.41690548D-13
 -0.14852597D-02 -0.71292917D-13 -0.38054148D-13 -0.31317788D-03 -0.50664598D-13
 -0.34410196D-13  0.14393298D-04 -0.43011128D-14  0.47959027D-15  0.30005578D-14
  0.96076424D-14 -0.12608200D-13 -0.15791944D-05 -0.39076502D-03 -0.32645982D-13
 -0.48970061D-14 -0.14646934D-13  0.19543940D-13  0.72239972D-06  0.17708100D-03
  0.78816226D-14 -0.50145869D-14 -0.79633371D-15  0.58109206D-14 -0.77612164D-07
  0.28501362D-04  0.84128544D-14  0.62619150D-04 -0.10918082D-13  0.61800686D-14
 -0.33384524D-03  0.10453872D-13 -0.15295484D-13  0.14598779D-03  0.22300375D-13
 -0.32447224D-14 -0.94579738D-06 -0.26418099D-04  0.12828224D-14 -0.22010447D-14
  0.13945088D-03 -0.91089078D-14  0.56489418D-14 -0.60196580D-04  0.52604407D-14
  0.95419236D-15 -0.11868731D-05 -0.41900108D-11 -0.78110242D-11 -0.13201695D-10
 -0.19844610D-10 -0.24375549D-10 -0.20572104D-10 -0.77356482D-11 -0.52577523D-15
 -0.39298441D-14 -0.14686725D-13 -0.40973675D-13 -0.54893428D-13  0.64818903D-13
 -0.31509094D-12 -0.78687829D-13 -0.12051519D-14  0.37330230D-02  0.34999463D-02
  0.24921703D-02  0.21968942D-12  0.20597279D-12  0.14666490D-12 -0.11446090D-12
 -0.10731437D-12 -0.76414227D-13  0.84912872D-03 -0.58974195D-14 -0.68838820D-13
  0.88085380D-04 -0.29888514D-13  0.40260254D-13 -0.16001468D-04  0.64671163D-15
 -0.52807168D-15  0.20304384D-13 -0.19416156D-13 -0.88822811D-15  0.47146533D-05
 -0.10394180D-02 -0.35178667D-14  0.13659759D-13 -0.25630656D-14 -0.11096694D-13
 -0.38300757D-05  0.94772806D-04  0.56624283D-13  0.17649544D-14 -0.32423359D-14
  0.14773815D-14 -0.16186442D-06 -0.41659934D-04  0.12380275D-13 -0.88113670D-04
  0.93796018D-14 -0.14457658D-13  0.13404864D-03 -0.20105620D-14  0.25281649D-13