 Entering Gaussian System, Link 0=/home/bruns/programas/chemistry/gaussian/g09/g09
 Input=GAUSSIAN.com
 Output=GAUSSIAN.log
 Initial command:
 /home/bruns/programas/chemistry/gaussian/g09/l1.exe /home/bruns/programas/chemistry/gaussian/work/Gau-50118.inp -scrdir=/home/bruns/programas/chemistry/gaussian/work/
 Entering Link 1 = /home/bruns/programas/chemistry/gaussian/g09/l1.exe PID=     50120.
  
 Copyright (c) 1988,1990,1992,1993,1995,1998,2003,2009,2010,
            Gaussian, Inc.  All Rights Reserved.
  
 This is part of the Gaussian(R) 09 program.  It is based on
 the Gaussian(R) 03 system (copyright 2003, Gaussian, Inc.),
 the Gaussian(R) 98 system (copyright 1998, Gaussian, Inc.),
 the Gaussian(R) 94 system (copyright 1995, Gaussian, Inc.),
 the Gaussian 92(TM) system (copyright 1992, Gaussian, Inc.),
 the Gaussian 90(TM) system (copyright 1990, Gaussian, Inc.),
 the Gaussian 88(TM) system (copyright 1988, Gaussian, Inc.),
 the Gaussian 86(TM) system (copyright 1986, Carnegie Mellon
 University), and the Gaussian 82(TM) system (copyright 1983,
 Carnegie Mellon University). Gaussian is a federally registered
 trademark of Gaussian, Inc.
  
 This software contains proprietary and confidential information,
 including trade secrets, belonging to Gaussian, Inc.
  
 This software is provided under written license and may be
 used, copied, transmitted, or stored only in accord with that
 written license.
  
 The following legend is applicable only to US Government
 contracts under FAR:
  
                    RESTRICTED RIGHTS LEGEND
  
 Use, reproduction and disclosure by the US Government is
 subject to restrictions as set forth in subparagraphs (a)
 and (c) of the Commercial Computer Software - Restricted
 Rights clause in FAR 52.227-19.
  
 Gaussian, Inc.
 340 Quinnipiac St., Bldg. 40, Wallingford CT 06492
  
  
 ---------------------------------------------------------------
 Warning -- This program may not be used in any manner that
 competes with the business of Gaussian, Inc. or will provide
 assistance to any competitor of Gaussian, Inc.  The licensee
 of this program is prohibited from giving any competitor of
 Gaussian, Inc. access to this program.  By using this program,
 the user acknowledges that Gaussian, Inc. is engaged in the
 business of creating and licensing software in the field of
 computational chemistry and represents and warrants to the
 licensee that it is not a competitor of Gaussian, Inc. and that
 it will not use this program in any manner prohibited above.
 ---------------------------------------------------------------
  

 Cite this work as:
 Gaussian 09, Revision B.01,
 M. J. Frisch, G. W. Trucks, H. B. Schlegel, G. E. Scuseria, 
 M. A. Robb, J. R. Cheeseman, G. Scalmani, V. Barone, B. Mennucci, 
 G. A. Petersson, H. Nakatsuji, M. Caricato, X. Li, H. P. Hratchian, 
 A. F. Izmaylov, J. Bloino, G. Zheng, J. L. Sonnenberg, M. Hada, 
 M. Ehara, K. Toyota, R. Fukuda, J. Hasegawa, M. Ishida, T. Nakajima, 
 Y. Honda, O. Kitao, H. Nakai, T. Vreven, J. A. Montgomery, Jr., 
 J. E. Peralta, F. Ogliaro, M. Bearpark, J. J. Heyd, E. Brothers, 
 K. N. Kudin, V. N. Staroverov, T. Keith, R. Kobayashi, J. Normand, 
 K. Raghavachari, A. Rendell, J. C. Burant, S. S. Iyengar, J. Tomasi, 
 M. Cossi, N. Rega, J. M. Millam, M. Klene, J. E. Knox, J. B. Cross, 
 V. Bakken, C. Adamo, J. Jaramillo, R. Gomperts, R. E. Stratmann, 
 O. Yazyev, A. J. Austin, R. Cammi, C. Pomelli, J. W. Ochterski, 
 R. L. Martin, K. Morokuma, V. G. Zakrzewski, G. A. Voth, 
 P. Salvador, J. J. Dannenberg, S. Dapprich, A. D. Daniels, 
 O. Farkas, J. B. Foresman, J. V. Ortiz, J. Cioslowski, 
 and D. J. Fox, Gaussian, Inc., Wallingford CT, 2010.
 
 ******************************************
 Gaussian 09:  EM64L-G09RevB.01 12-Aug-2010
                27-Nov-2021 
 ******************************************
 %nproc=8
 Will use up to    8 processors via shared memory.
 %mem=8GB
 -----------------------------------------------------
 # qcisd/aug-cc-pvtz nosymm density=current output=wfn
 -----------------------------------------------------
 1/30=1,38=1/1;
 2/12=2,15=1,17=6,18=5,40=1/2;
 3/5=16,6=1,7=10,11=9,16=1,25=1,30=1,71=1/1,2,3;
 4//1;
 5/5=2,38=5/2;
 8/6=4,9=120000,10=1/1,4;
 9/5=8,15=1/13;
 11/28=-7,31=1,32=3,42=3/11;
 10/5=6,13=10,31=1/2;
 6/7=2,8=2,9=2,10=2,22=-1,31=1/1;
 99/5=1,6=1100,9=1/99;
 ------------------
 cl2co-wavefunction
 ------------------
 Symbolic Z-matrix:
 Charge =  0 Multiplicity = 1
 O                     0.        0.        0.6834 
 C                     0.        0.       -0.49469 
 Cl                    0.       -1.45687  -1.46981 
 Cl                    0.        1.44687  -1.46981 
 
                          Input orientation:                          
 ---------------------------------------------------------------------
 Center     Atomic      Atomic             Coordinates (Angstroms)
 Number     Number       Type             X           Y           Z
 ---------------------------------------------------------------------
      1          8           0        0.000000    0.000000    0.683397
      2          6           0        0.000000    0.000000   -0.494687
      3         17           0        0.000000   -1.456870   -1.469805
      4         17           0        0.000000    1.446870   -1.469805
 ---------------------------------------------------------------------
                    Distance matrix (angstroms):
                    1          2          3          4
     1  O    0.000000
     2  C    1.178084   0.000000
     3  Cl   2.599759   1.753090   0.000000
     4  Cl   2.594169   1.744789   2.903740   0.000000
 Symmetry turned off by external request.
 Stoichiometry    CCl2O
 Framework group  CS[SG(CCl2O)]
 Deg. of freedom     5
 Full point group                 CS      NOp   2
 Rotational constants (GHZ):      7.9179738      3.4280561      2.3923133
 Standard basis: Aug-CC-pVTZ (5D, 7F)
 Integral buffers will be    131072 words long.
 Raffenetti 1 integral format.
 Two-electron integral symmetry is turned off.
   192 basis functions,   372 primitive gaussians,   228 cartesian basis functions
    24 alpha electrons       24 beta electrons
       nuclear repulsion energy       191.3777389275 Hartrees.
 NAtoms=    4 NActive=    4 NUniq=    4 SFac= 1.00D+00 NAtFMM=   50 NAOKFM=F Big=F
 One-electron integrals computed using PRISM.
 NBasis=   192 RedAO= T  NBF=   192
 NBsUse=   192 1.00D-06 NBFU=   192
 Harris functional with IExCor=  205 diagonalized for initial guess.
 ExpMin= 3.57D-02 ExpMax= 4.56D+05 ExpMxC= 1.44D+03 IAcc=3 IRadAn=         0 AccDes= 0.00D+00
 HarFok:  IExCor=  205 AccDes= 0.00D+00 IRadAn=         0 IDoV= 1
 ScaDFX=  1.000000  1.000000  1.000000  1.000000
 FoFCou: FMM=F IPFlag=           0 FMFlag=      100000 FMFlg1=           0
         NFxFlg=           0 DoJE=T BraDBF=F KetDBF=T FulRan=T
         Omega=  0.000000  0.000000  1.000000  0.000000  0.000000 ICntrl=     500 IOpCl=  0
         NMat0=    1 NMatS0=    1 NMatT0=    0 NMatD0=    1 NMtDS0=    0 NMtDT0=    0
         I1Cent=           4 NGrid=           0.
 Symmetry not used in FoFCou.
 Requested convergence on RMS density matrix=1.00D-08 within 128 cycles.
 Requested convergence on MAX density matrix=1.00D-06.
 Requested convergence on             energy=1.00D-06.
 No special actions if energy rises.
 Keep R1 ints in memory in canonical form, NReq=346956363.
 SCF Done:  E(RHF) =  -1031.80261245     A.U. after   12 cycles
             Convg  =    0.5212D-08             -V/T =  2.0003
 ExpMin= 3.57D-02 ExpMax= 4.56D+05 ExpMxC= 1.44D+03 IAcc=3 IRadAn=         5 AccDes= 0.00D+00
 HarFok:  IExCor=  205 AccDes= 0.00D+00 IRadAn=         5 IDoV=-2
 ScaDFX=  1.000000  1.000000  1.000000  1.000000
 DSYEVD returned Info=          93 IAlg= 4 N=    46 NDim=    46 NE2=    21472416 trying DSYEV.
 Range of M.O.s used for correlation:    13   192
 NBasis=   192 NAE=    24 NBE=    24 NFC=    12 NFV=     0
 NROrb=    180 NOA=    12 NOB=    12 NVA=   168 NVB=   168

 **** Warning!!: The largest alpha MO coefficient is  0.28213705D+02

 Semi-Direct transformation.
 ModeAB=           2 MOrb=            12 LenV=    1072714407
 LASXX=     33405819 LTotXX=    33405819 LenRXX=    33405819
 LTotAB=    33954012 MaxLAS=    56388960 LenRXY=    56388960
 NonZer=    66811638 LenScr=   100987392 LnRSAI=           0
 LnScr1=           0 LExtra=           0 Total=    190782171
 MaxDsk=          -1 SrtSym=           F ITran=            4
 JobTyp=0 Pass  1:  I=   1 to  12.
 (rs|ai) integrals will be sorted in core.
 Spin components of T(2) and E(2):
     alpha-alpha T2 =       0.3525998071D-01 E2=     -0.1017868896D+00
     alpha-beta  T2 =       0.1836380272D+00 E2=     -0.5759129960D+00
     beta-beta   T2 =       0.3525998071D-01 E2=     -0.1017868896D+00
 ANorm=    0.1119891954D+01
 E2 =    -0.7794867753D+00 EUMP2 =    -0.10325820992234D+04
 R2 and R3 integrals will be kept in memory, NReq=   687553722.
 Iterations=  50 Convergence= 0.100D-07
 Iteration Nr.   1
 **********************
 DD1Dir will call FoFMem   1 times, MxPair=       156
 NAB=    78 NAA=     0 NBB=     0.
 MP4(R+Q)=  0.22552234D-01
 E3=       -0.19057294D-01        EUMP3=      -0.10326011565D+04
 E4(DQ)=    0.28483904D-02        UMP4(DQ)=   -0.10325983081D+04
 E4(SDQ)=  -0.61622256D-02        UMP4(SDQ)=  -0.10326073187D+04
 DE(Corr)= -0.77599184     E(Corr)=     -1032.5786043    
 NORM(A)=   0.11214846D+01
 Iteration Nr.   2
 **********************
 DD1Dir will call FoFMem   1 times, MxPair=       156
 NAB=    78 NAA=     0 NBB=     0.
 DE(Corr)= -0.80176332     E(CORR)=     -1032.6043758     Delta=-2.58D-02
 NORM(A)=   0.11308732D+01
 Iteration Nr.   3
 **********************
 DD1Dir will call FoFMem   1 times, MxPair=       156
 NAB=    78 NAA=     0 NBB=     0.
 DE(Corr)= -0.80014829     E(CORR)=     -1032.6027607     Delta= 1.62D-03
 NORM(A)=   0.11334914D+01
 Iteration Nr.   4
 **********************
 DD1Dir will call FoFMem   1 times, MxPair=       156
 NAB=    78 NAA=     0 NBB=     0.
 DE(Corr)= -0.80258852     E(CORR)=     -1032.6052010     Delta=-2.44D-03
 NORM(A)=   0.11345089D+01
 Iteration Nr.   5
 **********************
 DD1Dir will call FoFMem   1 times, MxPair=       156
 NAB=    78 NAA=     0 NBB=     0.
 DE(Corr)= -0.80290750     E(CORR)=     -1032.6055199     Delta=-3.19D-04
 NORM(A)=   0.11349024D+01
 Iteration Nr.   6
 **********************
 DD1Dir will call FoFMem   1 times, MxPair=       156
 NAB=    78 NAA=     0 NBB=     0.
 DE(Corr)= -0.80295854     E(CORR)=     -1032.6055710     Delta=-5.10D-05
 NORM(A)=   0.11349743D+01
 Iteration Nr.   7
 **********************
 DD1Dir will call FoFMem   1 times, MxPair=       156
 NAB=    78 NAA=     0 NBB=     0.
 DE(Corr)= -0.80296779     E(CORR)=     -1032.6055802     Delta=-9.25D-06
 NORM(A)=   0.11349756D+01
 Iteration Nr.   8
 **********************
 DD1Dir will call FoFMem   1 times, MxPair=       156
 NAB=    78 NAA=     0 NBB=     0.
 DE(Corr)= -0.80296737     E(CORR)=     -1032.6055798     Delta= 4.25D-07
 NORM(A)=   0.11349838D+01
 Iteration Nr.   9
 **********************
 DD1Dir will call FoFMem   1 times, MxPair=       156
 NAB=    78 NAA=     0 NBB=     0.
 DE(Corr)= -0.80296611     E(CORR)=     -1032.6055786     Delta= 1.26D-06
 NORM(A)=   0.11349834D+01
 Iteration Nr.  10
 **********************
 DD1Dir will call FoFMem   1 times, MxPair=       156
 NAB=    78 NAA=     0 NBB=     0.
 DE(Corr)= -0.80296730     E(CORR)=     -1032.6055798     Delta=-1.19D-06
 NORM(A)=   0.11349851D+01
 Iteration Nr.  11
 **********************
 DD1Dir will call FoFMem   1 times, MxPair=       156
 NAB=    78 NAA=     0 NBB=     0.
 DE(Corr)= -0.80296814     E(CORR)=     -1032.6055806     Delta=-8.40D-07
 NORM(A)=   0.11349862D+01
 Iteration Nr.  12
 **********************
 DD1Dir will call FoFMem   1 times, MxPair=       156
 NAB=    78 NAA=     0 NBB=     0.
 DE(Corr)= -0.80296839     E(CORR)=     -1032.6055808     Delta=-2.46D-07
 NORM(A)=   0.11349869D+01
 Iteration Nr.  13
 **********************
 DD1Dir will call FoFMem   1 times, MxPair=       156
 NAB=    78 NAA=     0 NBB=     0.
 DE(Corr)= -0.80296872     E(CORR)=     -1032.6055812     Delta=-3.33D-07
 NORM(A)=   0.11349874D+01
 Iteration Nr.  14
 **********************
 DD1Dir will call FoFMem   1 times, MxPair=       156
 NAB=    78 NAA=     0 NBB=     0.
 DE(Corr)= -0.80296879     E(CORR)=     -1032.6055812     Delta=-6.43D-08
 NORM(A)=   0.11349875D+01
 Iteration Nr.  15
 **********************
 DD1Dir will call FoFMem   1 times, MxPair=       156
 NAB=    78 NAA=     0 NBB=     0.
 DE(Corr)= -0.80296884     E(CORR)=     -1032.6055813     Delta=-4.90D-08
 NORM(A)=   0.11349876D+01
 Iteration Nr.  16
 **********************
 DD1Dir will call FoFMem   1 times, MxPair=       156
 NAB=    78 NAA=     0 NBB=     0.
 DE(Corr)= -0.80296885     E(CORR)=     -1032.6055813     Delta=-1.62D-08
 NORM(A)=   0.11349877D+01
 Iteration Nr.  17
 **********************
 DD1Dir will call FoFMem   1 times, MxPair=       156
 NAB=    78 NAA=     0 NBB=     0.
 DE(Corr)= -0.80296885     E(CORR)=     -1032.6055813     Delta= 1.59D-09
 NORM(A)=   0.11349877D+01
 Iteration Nr.  18
 **********************
 DD1Dir will call FoFMem   1 times, MxPair=       156
 NAB=    78 NAA=     0 NBB=     0.
 DE(Corr)= -0.80296885     E(CORR)=     -1032.6055813     Delta=-1.29D-09
 NORM(A)=   0.11349876D+01
 Iteration Nr.  19
 **********************
 DD1Dir will call FoFMem   1 times, MxPair=       156
 NAB=    78 NAA=     0 NBB=     0.
 DE(Corr)= -0.80296885     E(CORR)=     -1032.6055813     Delta= 1.22D-09
 NORM(A)=   0.11349877D+01
 Largest amplitude= 3.29D-02

 Z-AMPLITUDE ITERATIONS

 Iteration Nr.   1
 **********************
 DD1Dir will call FoFMem   1 times, MxPair=       156
 NAB=    78 NAA=     0 NBB=     0.
 DE(Z)  -0.77487980D+00          E(Z)=    -0.10325774922D+04
 NORM(A)=   0.11349444D+01
 Iteration Nr.   2
 **********************
 DD1Dir will call FoFMem   1 times, MxPair=       156
 NAB=    78 NAA=     0 NBB=     0.
 DE(Z)  -0.77487838D+00          E(Z)=    -0.10325774908D+04
 NORM(A)=   0.11349771D+01
 Iteration Nr.   3
 **********************
 DD1Dir will call FoFMem   1 times, MxPair=       156
 NAB=    78 NAA=     0 NBB=     0.
 DE(Z)  -0.77487948D+00          E(Z)=    -0.10325774919D+04
 NORM(A)=   0.11349847D+01
 Iteration Nr.   4
 **********************
 DD1Dir will call FoFMem   1 times, MxPair=       156
 NAB=    78 NAA=     0 NBB=     0.
 DE(Z)  -0.77487970D+00          E(Z)=    -0.10325774922D+04
 NORM(A)=   0.11349860D+01
 Iteration Nr.   5
 **********************
 DD1Dir will call FoFMem   1 times, MxPair=       156
 NAB=    78 NAA=     0 NBB=     0.
 DE(Z)  -0.77487974D+00          E(Z)=    -0.10325774922D+04
 NORM(A)=   0.11252972D+01
 Iteration Nr.   6
 **********************
 DD1Dir will call FoFMem   1 times, MxPair=       156
 NAB=    78 NAA=     0 NBB=     0.
 DE(Z)  -0.77456075D+00          E(Z)=    -0.10325771732D+04
 NORM(A)=   0.11252870D+01
 Iteration Nr.   7
 **********************
 DD1Dir will call FoFMem   1 times, MxPair=       156
 NAB=    78 NAA=     0 NBB=     0.
 DE(Z)  -0.77456303D+00          E(Z)=    -0.10325771755D+04
 NORM(A)=   0.11252889D+01
 Iteration Nr.   8
 **********************
 DD1Dir will call FoFMem   1 times, MxPair=       156
 NAB=    78 NAA=     0 NBB=     0.
 DE(Z)  -0.77456239D+00          E(Z)=    -0.10325771748D+04
 NORM(A)=   0.11252887D+01
 Iteration Nr.   9
 **********************
 DD1Dir will call FoFMem   1 times, MxPair=       156
 NAB=    78 NAA=     0 NBB=     0.
 DE(Z)  -0.77456246D+00          E(Z)=    -0.10325771749D+04
 NORM(A)=   0.11252891D+01
 Iteration Nr.  10
 **********************
 DD1Dir will call FoFMem   1 times, MxPair=       156
 NAB=    78 NAA=     0 NBB=     0.
 DE(Z)  -0.77456291D+00          E(Z)=    -0.10325771754D+04
 NORM(A)=   0.11252896D+01
 Iteration Nr.  11
 **********************
 DD1Dir will call FoFMem   1 times, MxPair=       156
 NAB=    78 NAA=     0 NBB=     0.
 DE(Z)  -0.77456275D+00          E(Z)=    -0.10325771752D+04
 NORM(A)=   0.11252897D+01
 Iteration Nr.  12
 **********************
 DD1Dir will call FoFMem   1 times, MxPair=       156
 NAB=    78 NAA=     0 NBB=     0.
 DE(Z)  -0.77456283D+00          E(Z)=    -0.10325771753D+04
 NORM(A)=   0.11252898D+01
 Iteration Nr.  13
 **********************
 DD1Dir will call FoFMem   1 times, MxPair=       156
 NAB=    78 NAA=     0 NBB=     0.
 DE(Z)  -0.77456281D+00          E(Z)=    -0.10325771753D+04
 NORM(A)=   0.11252898D+01
 Iteration Nr.  14
 **********************
 DD1Dir will call FoFMem   1 times, MxPair=       156
 NAB=    78 NAA=     0 NBB=     0.
 DE(Z)  -0.77456281D+00          E(Z)=    -0.10325771753D+04
 NORM(A)=   0.11252898D+01
 Iteration Nr.  15
 **********************
 DD1Dir will call FoFMem   1 times, MxPair=       156
 NAB=    78 NAA=     0 NBB=     0.
 DE(Z)  -0.77456282D+00          E(Z)=    -0.10325771753D+04
 NORM(A)=   0.11252898D+01
 Discarding MO integrals.
          Differentiating once with respect to electric field.
                with respect to dipole field.
          Electric field/nuclear overlap derivatives assumed to be zero.
          Keep R1 ints in memory in canonical form, NReq=342715808.
          There are     1 degrees of freedom in the 1st order CPHF.  IDoFFX=0.
 LinEq1:  Iter=  0 NonCon=     1 RMS=2.34D-03 Max=5.54D-02
 AX will form     1 AO Fock derivatives at one time.
 LinEq1:  Iter=  1 NonCon=     1 RMS=8.32D-04 Max=1.85D-02
 LinEq1:  Iter=  2 NonCon=     1 RMS=3.11D-04 Max=5.56D-03
 LinEq1:  Iter=  3 NonCon=     1 RMS=1.28D-04 Max=3.23D-03
 LinEq1:  Iter=  4 NonCon=     1 RMS=5.14D-05 Max=1.23D-03
 LinEq1:  Iter=  5 NonCon=     1 RMS=1.66D-05 Max=3.56D-04
 LinEq1:  Iter=  6 NonCon=     1 RMS=4.20D-06 Max=5.83D-05
 LinEq1:  Iter=  7 NonCon=     1 RMS=9.96D-07 Max=1.14D-05
 LinEq1:  Iter=  8 NonCon=     1 RMS=2.11D-07 Max=3.14D-06
 LinEq1:  Iter=  9 NonCon=     1 RMS=4.75D-08 Max=7.99D-07
 LinEq1:  Iter= 10 NonCon=     1 RMS=1.21D-08 Max=2.25D-07
 LinEq1:  Iter= 11 NonCon=     1 RMS=2.54D-09 Max=3.78D-08
 LinEq1:  Iter= 12 NonCon=     1 RMS=4.72D-10 Max=1.18D-08
 LinEq1:  Iter= 13 NonCon=     1 RMS=8.59D-11 Max=1.24D-09
 LinEq1:  Iter= 14 NonCon=     0 RMS=2.12D-11 Max=3.41D-10
 Linear equations converged to 1.000D-10 1.000D-09 after    14 iterations.
 End of Minotr Frequency-dependent properties file   721 does not exist.
 End of Minotr Frequency-dependent properties file   722 does not exist.

 **********************************************************************

            Population analysis using the QCI/CC density.

 **********************************************************************

     Natural Orbital Coefficients:
                           1         2         3         4         5
     Eigenvalues --     2.00004   2.00004   2.00003   2.00003   2.00003
   1 1   O  1S          0.00063   0.01076   0.00000   0.00000  -0.00321
   2        2S         -0.00002  -0.00026   0.00000   0.00000   0.00010
   3        3S          0.00003   0.00050   0.00000   0.00000  -0.00013
   4        4S          0.00001   0.00085   0.00000   0.00000  -0.00014
   5        5S          0.00014   0.00297   0.00000   0.00000  -0.00006
   6        6PX         0.00000   0.00000   0.00001  -0.00106   0.00000
   7        6PY        -0.00018   0.00000   0.00000   0.00000   0.00025
   8        6PZ         0.00002   0.00032   0.00000   0.00000   0.00002
   9        7PX         0.00000   0.00000   0.00001  -0.00158   0.00000
  10        7PY        -0.00101   0.00004   0.00000   0.00000   0.00047
  11        7PZ         0.00004   0.00061   0.00000   0.00000   0.00005
  12        8PX         0.00000   0.00000   0.00002  -0.00149   0.00000
  13        8PY        -0.00367   0.00017   0.00000   0.00000   0.00149
  14        8PZ         0.00015   0.00236   0.00000   0.00000   0.00017
  15        9PX         0.00000   0.00000   0.00000   0.00034   0.00000
  16        9PY        -0.00048   0.00003   0.00000   0.00000   0.00113
  17        9PZ         0.00001   0.00025   0.00000   0.00000  -0.00004
  18       10D 0        0.00000   0.00001   0.00000   0.00000   0.00000
  19       10D+1        0.00000   0.00000   0.00000  -0.00003   0.00000
  20       10D-1       -0.00002   0.00000   0.00000   0.00000   0.00003
  21       10D+2        0.00000   0.00003   0.00000   0.00000   0.00000
  22       10D-2        0.00000   0.00000  -0.00001   0.00000   0.00000
  23       11D 0       -0.00001  -0.00022   0.00000   0.00000  -0.00002
  24       11D+1        0.00000   0.00000   0.00000   0.00013   0.00000
  25       11D-1       -0.00005   0.00000   0.00000   0.00000  -0.00009
  26       11D+2       -0.00001  -0.00024   0.00000   0.00000   0.00000
  27       11D-2        0.00000   0.00000  -0.00003   0.00000   0.00000
  28       12D 0       -0.00004  -0.00072   0.00000   0.00000  -0.00001
  29       12D+1        0.00000   0.00000  -0.00001   0.00014   0.00000
  30       12D-1        0.00059  -0.00002   0.00000   0.00000  -0.00027
  31       12D+2        0.00001   0.00018   0.00000   0.00000   0.00005
  32       12D-2        0.00000   0.00000   0.00082   0.00000   0.00000
  33       13F 0        0.00000   0.00001   0.00000   0.00000   0.00000
  34       13F+1        0.00000   0.00000   0.00000   0.00002   0.00000
  35       13F-1        0.00003   0.00000   0.00000   0.00000  -0.00002
  36       13F+2        0.00000   0.00000   0.00000   0.00000   0.00000
  37       13F-2        0.00000   0.00000   0.00006   0.00000   0.00000
  38       13F+3        0.00000   0.00000   0.00000   0.00004   0.00000
  39       13F-3        0.00004   0.00000   0.00000   0.00000   0.00000
  40       14F 0        0.00000   0.00011   0.00000   0.00000  -0.00002
  41       14F+1        0.00000   0.00000   0.00000  -0.00008   0.00000
  42       14F-1        0.00030  -0.00001   0.00000   0.00000   0.00003
  43       14F+2        0.00001   0.00014   0.00000   0.00000  -0.00002
  44       14F-2        0.00000   0.00000  -0.00020   0.00000   0.00000
  45       14F+3        0.00000   0.00000   0.00000  -0.00017   0.00000
  46       14F-3       -0.00019   0.00001   0.00000   0.00000   0.00004
  47 2   C  1S         -0.00059  -0.01159   0.00000   0.00000   0.03334
  48        2S          0.00008   0.00142   0.00000   0.00000  -0.00067
  49        3S         -0.00001  -0.00016   0.00000   0.00000   0.00122
  50        4S          0.00000  -0.00004   0.00000   0.00000   0.00145
  51        5S          0.00007   0.00126   0.00000   0.00000   0.00010
  52        6PX         0.00000   0.00000  -0.00002   0.00168   0.00000
  53        6PY         0.00051  -0.00001   0.00000   0.00000  -0.00068
  54        6PZ         0.00003   0.00044   0.00000   0.00000   0.00009
  55        7PX         0.00000   0.00000  -0.00002   0.00195   0.00000
  56        7PY         0.00035  -0.00002   0.00000   0.00000   0.00015
  57        7PZ         0.00012   0.00189   0.00000   0.00000   0.00015
  58        8PX         0.00000   0.00000   0.00000   0.00086   0.00000
  59        8PY         0.00069   0.00000   0.00000   0.00000   0.00240
  60        8PZ        -0.00013  -0.00198   0.00000   0.00000  -0.00056
  61        9PX         0.00000   0.00000   0.00000  -0.00072   0.00000
  62        9PY        -0.00039   0.00002   0.00000   0.00000  -0.00109
  63        9PZ        -0.00005  -0.00100   0.00000   0.00000   0.00006
  64       10D 0       -0.00002  -0.00031   0.00000   0.00000   0.00002
  65       10D+1        0.00000   0.00000   0.00000  -0.00031   0.00000
  66       10D-1        0.00005   0.00000   0.00000   0.00000  -0.00002
  67       10D+2       -0.00001  -0.00022   0.00000   0.00000  -0.00002
  68       10D-2        0.00000   0.00000  -0.00036   0.00000   0.00000
  69       11D 0        0.00005   0.00035   0.00000   0.00000   0.00005
  70       11D+1        0.00000   0.00000  -0.00002   0.00023   0.00000
  71       11D-1        0.00022  -0.00001   0.00000   0.00000  -0.00148
  72       11D+2        0.00005   0.00063   0.00000   0.00000  -0.00021
  73       11D-2        0.00000   0.00000   0.00011  -0.00001   0.00000
  74       12D 0       -0.00019  -0.00393   0.00000   0.00000   0.00002
  75       12D+1        0.00000   0.00000   0.00000  -0.00082   0.00000
  76       12D-1        0.00109  -0.00007   0.00000   0.00000  -0.00219
  77       12D+2       -0.00011  -0.00228   0.00000   0.00000  -0.00018
  78       12D-2        0.00000   0.00000  -0.00143   0.00000   0.00000
  79       13F 0        0.00001   0.00017   0.00000   0.00000   0.00003
  80       13F+1        0.00000   0.00000   0.00000   0.00006   0.00000
  81       13F-1       -0.00041   0.00002   0.00000   0.00000   0.00002
  82       13F+2        0.00000   0.00002   0.00000   0.00000   0.00000
  83       13F-2        0.00000   0.00000   0.00011   0.00000   0.00000
  84       13F+3        0.00000   0.00000   0.00000  -0.00009   0.00000
  85       13F-3       -0.00009   0.00000   0.00000   0.00000   0.00000
  86       14F 0       -0.00006  -0.00087   0.00000   0.00000  -0.00005
  87       14F+1        0.00000   0.00000   0.00000   0.00011   0.00000
  88       14F-1        0.00400  -0.00018   0.00000   0.00000  -0.00041
  89       14F+2       -0.00001  -0.00005   0.00000   0.00000   0.00001
  90       14F-2        0.00000   0.00000  -0.00119   0.00000   0.00000
  91       14F+3        0.00000   0.00000  -0.00001   0.00061   0.00000
  92       14F-3        0.00118  -0.00006   0.00000   0.00000  -0.00040
  93 3   Cl 1S         -0.00068  -0.00229   0.00000   0.00000  -0.13016
  94        2S          0.00267   0.00808   0.00000   0.00000   0.43946
  95        3S          0.00040   0.00012   0.00000   0.00000  -0.01294
  96        4S          0.00017   0.00044   0.00000   0.00000   0.03405
  97        5S         -0.00063  -0.00101   0.00000   0.00000  -0.00061
  98        6S         -0.00078  -0.00192   0.00000   0.00000  -0.00153
  99        7PX         0.00000   0.00000  -0.69081  -0.69374   0.00000
 100        7PY        -0.37285   0.36284   0.00000   0.00000  -0.23198
 101        7PZ         0.54148  -0.62946   0.00000   0.00000  -0.17005
 102        8PX         0.00000   0.00000   0.01489   0.01343   0.00000
 103        8PY         0.00942  -0.00774   0.00000   0.00000   0.00462
 104        8PZ        -0.01320   0.01454   0.00000   0.00000   0.00353
 105        9PX         0.00000   0.00000  -0.03655  -0.03719   0.00000
 106        9PY        -0.01938   0.01890   0.00000   0.00000  -0.01318
 107        9PZ         0.02828  -0.03299   0.00000   0.00000  -0.00967
 108       10PX         0.00000   0.00000   0.00380   0.00335   0.00000
 109       10PY         0.00296  -0.00166   0.00000   0.00000   0.00113
 110       10PZ        -0.00488   0.00223   0.00000   0.00000   0.00099
 111       11PX         0.00000   0.00000   0.00057   0.00081   0.00000
 112       11PY         0.00038  -0.00046   0.00000   0.00000   0.00014
 113       11PZ        -0.00063   0.00031   0.00000   0.00000  -0.00012
 114       12D 0        0.00041  -0.00027   0.00000   0.00000  -0.00003
 115       12D+1        0.00000   0.00000  -0.00016  -0.00015   0.00000
 116       12D-1        0.00022  -0.00014   0.00000   0.00000   0.00009
 117       12D+2        0.00023  -0.00014   0.00000   0.00000  -0.00003
 118       12D-2        0.00000   0.00000  -0.00029  -0.00015   0.00000
 119       13D 0       -0.00184   0.00112   0.00000   0.00000   0.00023
 120       13D+1        0.00000   0.00000   0.00070   0.00059   0.00000
 121       13D-1       -0.00076   0.00104   0.00000   0.00000   0.00052
 122       13D+2       -0.00080   0.00066   0.00000   0.00000  -0.00026
 123       13D-2        0.00000   0.00000   0.00105   0.00096   0.00000
 124       14D 0       -0.00009  -0.00075   0.00000   0.00000  -0.00004
 125       14D+1        0.00000   0.00000  -0.00043   0.00005   0.00000
 126       14D-1       -0.00007  -0.00021   0.00000   0.00000   0.00020
 127       14D+2        0.00006  -0.00045   0.00000   0.00000   0.00022
 128       14D-2        0.00000   0.00000  -0.00025  -0.00010   0.00000
 129       15F 0        0.00000   0.00001   0.00000   0.00000   0.00002
 130       15F+1        0.00000   0.00000   0.00007  -0.00004   0.00000
 131       15F-1        0.00001   0.00003   0.00000   0.00000   0.00002
 132       15F+2        0.00003   0.00002   0.00000   0.00000  -0.00001
 133       15F-2        0.00000   0.00000   0.00000  -0.00001   0.00000
 134       15F+3        0.00000   0.00000   0.00001  -0.00001   0.00000
 135       15F-3        0.00001   0.00004   0.00000   0.00000  -0.00001
 136       16F 0       -0.00039  -0.00011   0.00000   0.00000  -0.00013
 137       16F+1        0.00000   0.00000  -0.00015   0.00015   0.00000
 138       16F-1       -0.00087   0.00053   0.00000   0.00000   0.00015
 139       16F+2       -0.00006  -0.00029   0.00000   0.00000  -0.00018
 140       16F-2        0.00000   0.00000   0.00035   0.00032   0.00000
 141       16F+3        0.00000   0.00000  -0.00032  -0.00028   0.00000
 142       16F-3       -0.00018   0.00019   0.00000   0.00000  -0.00003
 143 4   Cl 1S          0.00027  -0.00257   0.00000   0.00000   0.20905
 144        2S         -0.00125   0.00907   0.00000   0.00000  -0.70559
 145        3S         -0.00041   0.00013   0.00000   0.00000   0.02092
 146        4S         -0.00008   0.00051   0.00000   0.00000  -0.05475
 147        5S          0.00054  -0.00110   0.00000   0.00000   0.00139
 148        6S          0.00058  -0.00202   0.00000   0.00000   0.00161
 149        7PX         0.00000   0.00000   0.69422  -0.69032   0.00000
 150        7PY        -0.40847  -0.32467   0.00000   0.00000  -0.36832
 151        7PZ        -0.60122  -0.57128   0.00000   0.00000   0.24386
 152        8PX         0.00000   0.00000  -0.01498   0.01337   0.00000
 153        8PY         0.01020   0.00681   0.00000   0.00000   0.00703
 154        8PZ         0.01464   0.01316   0.00000   0.00000  -0.00483
 155        9PX         0.00000   0.00000   0.03674  -0.03702   0.00000
 156        9PY        -0.02123  -0.01691   0.00000   0.00000  -0.02094
 157        9PZ        -0.03141  -0.02995   0.00000   0.00000   0.01390
 158       10PX         0.00000   0.00000  -0.00381   0.00332   0.00000
 159       10PY         0.00312   0.00136   0.00000   0.00000   0.00215
 160       10PZ         0.00511   0.00171   0.00000   0.00000  -0.00155
 161       11PX         0.00000   0.00000  -0.00056   0.00080   0.00000
 162       11PY         0.00042   0.00041   0.00000   0.00000   0.00016
 163       11PZ         0.00065   0.00023   0.00000   0.00000   0.00006
 164       12D 0       -0.00044  -0.00023   0.00000   0.00000   0.00006
 165       12D+1        0.00000   0.00000   0.00017  -0.00015   0.00000
 166       12D-1        0.00023   0.00012   0.00000   0.00000   0.00017
 167       12D+2       -0.00024  -0.00012   0.00000   0.00000   0.00007
 168       12D-2        0.00000   0.00000  -0.00029   0.00015   0.00000
 169       13D 0        0.00198   0.00096   0.00000   0.00000  -0.00020
 170       13D+1        0.00000   0.00000  -0.00072   0.00060   0.00000
 171       13D-1       -0.00087  -0.00097   0.00000   0.00000   0.00070
 172       13D+2        0.00088   0.00058   0.00000   0.00000   0.00048
 173       13D-2        0.00000   0.00000   0.00107  -0.00096   0.00000
 174       14D 0        0.00002  -0.00076   0.00000   0.00000   0.00007
 175       14D+1        0.00000   0.00000   0.00043   0.00005   0.00000
 176       14D-1       -0.00005   0.00021   0.00000   0.00000   0.00034
 177       14D+2       -0.00011  -0.00044   0.00000   0.00000  -0.00007
 178       14D-2        0.00000   0.00000  -0.00025   0.00010   0.00000
 179       15F 0        0.00000   0.00001   0.00000   0.00000  -0.00002
 180       15F+1        0.00000   0.00000  -0.00007  -0.00004   0.00000
 181       15F-1        0.00001  -0.00003   0.00000   0.00000   0.00002
 182       15F+2       -0.00003   0.00002   0.00000   0.00000   0.00001
 183       15F-2        0.00000   0.00000   0.00000   0.00001   0.00000
 184       15F+3        0.00000   0.00000  -0.00001  -0.00001   0.00000
 185       15F-3        0.00001  -0.00004   0.00000   0.00000  -0.00002
 186       16F 0        0.00038  -0.00014   0.00000   0.00000   0.00014
 187       16F+1        0.00000   0.00000   0.00014   0.00016   0.00000
 188       16F-1       -0.00093  -0.00045   0.00000   0.00000   0.00016
 189       16F+2        0.00004  -0.00029   0.00000   0.00000   0.00025
 190       16F-2        0.00000   0.00000   0.00035  -0.00033   0.00000
 191       16F+3        0.00000   0.00000   0.00032  -0.00028   0.00000
 192       16F-3       -0.00019  -0.00017   0.00000   0.00000  -0.00008
                           6         7         8         9        10
     Eigenvalues --     2.00003   2.00001   2.00001   2.00001   2.00000
   1 1   O  1S          0.01361   0.13379  -0.22658   0.88001   0.33973
   2        2S         -0.00041  -0.00293   0.00493  -0.01617  -0.00555
   3        3S          0.00054   0.00559  -0.00947   0.03743   0.01486
   4        4S          0.00065  -0.00028   0.00034  -0.00331  -0.00105
   5        5S          0.00030   0.00091  -0.00160  -0.00102  -0.00164
   6        6PX         0.00000   0.00000   0.00000   0.00000   0.00000
   7        6PY         0.00006  -0.00068  -0.00041   0.00000   0.00001
   8        6PZ        -0.00009  -0.00092   0.00155  -0.00372   0.00046
   9        7PX         0.00000   0.00000   0.00000   0.00000   0.00000
  10        7PY         0.00011  -0.00115  -0.00070  -0.00001   0.00001
  11        7PZ        -0.00021  -0.00066   0.00113  -0.00075   0.00312
  12        8PX         0.00000   0.00000   0.00000   0.00000   0.00000
  13        8PY         0.00033  -0.00354  -0.00213  -0.00001   0.00000
  14        8PZ        -0.00076  -0.00105   0.00182  -0.00257   0.00275
  15        9PX         0.00000   0.00000   0.00000   0.00000   0.00000
  16        9PY         0.00026  -0.00132  -0.00080  -0.00001   0.00000
  17        9PZ         0.00016  -0.00015   0.00026  -0.00031   0.00085
  18       10D 0        0.00002   0.00005  -0.00009   0.00021   0.00002
  19       10D+1        0.00000   0.00000   0.00000   0.00000   0.00000
  20       10D-1        0.00001  -0.00003  -0.00002   0.00000   0.00000
  21       10D+2        0.00000   0.00000   0.00000  -0.00007   0.00000
  22       10D-2        0.00000   0.00000   0.00000   0.00000   0.00000
  23       11D 0        0.00008   0.00005  -0.00008  -0.00037  -0.00104
  24       11D+1        0.00000   0.00000   0.00000   0.00000   0.00000
  25       11D-1       -0.00002   0.00009   0.00006   0.00000   0.00000
  26       11D+2       -0.00001  -0.00009   0.00014  -0.00004  -0.00012
  27       11D-2        0.00000   0.00000   0.00000   0.00000   0.00000
  28       12D 0        0.00007   0.00001  -0.00004   0.00074  -0.00095
  29       12D+1        0.00000   0.00000   0.00000   0.00000   0.00000
  30       12D-1       -0.00006   0.00089   0.00054   0.00000   0.00000
  31       12D+2       -0.00021  -0.00032   0.00053   0.00016  -0.00003
  32       12D-2        0.00000   0.00000   0.00000   0.00000   0.00000
  33       13F 0        0.00001   0.00005  -0.00008   0.00006  -0.00013
  34       13F+1        0.00000   0.00000   0.00000   0.00000   0.00000
  35       13F-1        0.00000   0.00005   0.00003   0.00000   0.00000
  36       13F+2       -0.00001  -0.00001   0.00002  -0.00002  -0.00002
  37       13F-2        0.00000   0.00000   0.00000   0.00000   0.00000
  38       13F+3        0.00000   0.00000   0.00000   0.00000   0.00000
  39       13F-3        0.00000   0.00000   0.00000   0.00000   0.00000
  40       14F 0        0.00006   0.00007  -0.00012  -0.00007   0.00053
  41       14F+1        0.00000   0.00000   0.00000   0.00000   0.00000
  42       14F-1        0.00001  -0.00004  -0.00003   0.00000   0.00000
  43       14F+2        0.00008   0.00015  -0.00025  -0.00010   0.00018
  44       14F-2        0.00000   0.00000   0.00000   0.00000   0.00000
  45       14F+3        0.00000   0.00000   0.00000   0.00000   0.00000
  46       14F-3        0.00001  -0.00006  -0.00004   0.00000   0.00000
  47 2   C  1S         -0.14046  -0.31975   0.53045  -0.09840   0.74017
  48        2S          0.00281   0.00555  -0.00920   0.00080  -0.00662
  49        3S         -0.00514  -0.01246   0.02067  -0.00483   0.03210
  50        4S         -0.00602  -0.00291   0.00505   0.00578  -0.01224
  51        5S         -0.00036  -0.00127   0.00216   0.00151  -0.00229
  52        6PX         0.00000   0.00000   0.00000   0.00000   0.00000
  53        6PY        -0.00015   0.00209   0.00126   0.00001   0.00000
  54        6PZ        -0.00036  -0.00032   0.00050   0.00095  -0.00197
  55        7PX         0.00000   0.00000   0.00000   0.00000   0.00000
  56        7PY         0.00002  -0.00030  -0.00017   0.00000  -0.00003
  57        7PZ        -0.00070  -0.00067   0.00118   0.00089   0.00496
  58        8PX         0.00000   0.00000   0.00000   0.00000   0.00000
  59        8PY         0.00053  -0.00010  -0.00006   0.00000  -0.00001
  60        8PZ         0.00230   0.00085  -0.00143  -0.00103   0.00411
  61        9PX         0.00000   0.00000   0.00000   0.00000   0.00000
  62        9PY        -0.00025   0.00121   0.00073   0.00001   0.00000
  63        9PZ        -0.00028   0.00006  -0.00010   0.00017   0.00017
  64       10D 0       -0.00007  -0.00013   0.00022   0.00008   0.00070
  65       10D+1        0.00000   0.00000   0.00000   0.00000   0.00000
  66       10D-1        0.00000  -0.00010  -0.00006   0.00000   0.00000
  67       10D+2        0.00006   0.00006  -0.00010   0.00002  -0.00016
  68       10D-2        0.00000   0.00000   0.00000   0.00000   0.00000
  69       11D 0       -0.00022   0.00001   0.00002   0.00094   0.00101
  70       11D+1        0.00000   0.00000   0.00000   0.00000   0.00000
  71       11D-1       -0.00032   0.00236   0.00144   0.00001   0.00001
  72       11D+2        0.00087   0.00028  -0.00048  -0.00112   0.00329
  73       11D-2        0.00000   0.00000   0.00000   0.00000   0.00000
  74       12D 0       -0.00011  -0.00021   0.00038  -0.00007  -0.00066
  75       12D+1        0.00000   0.00000   0.00000   0.00000   0.00000
  76       12D-1       -0.00049   0.00222   0.00135   0.00001   0.00000
  77       12D+2        0.00075   0.00055  -0.00091  -0.00086   0.00114
  78       12D-2        0.00000   0.00000   0.00000   0.00000   0.00000
  79       13F 0       -0.00015  -0.00015   0.00026  -0.00013   0.00037
  80       13F+1        0.00000   0.00000   0.00000   0.00000   0.00000
  81       13F-1        0.00000  -0.00006  -0.00004   0.00000   0.00000
  82       13F+2       -0.00002   0.00006  -0.00008  -0.00007  -0.00008
  83       13F-2        0.00000   0.00000   0.00000   0.00000   0.00000
  84       13F+3        0.00000   0.00000   0.00000   0.00000   0.00000
  85       13F-3        0.00000  -0.00002  -0.00001   0.00000   0.00000
  86       14F 0        0.00020   0.00056  -0.00091   0.00087  -0.00090
  87       14F+1        0.00000   0.00000   0.00000   0.00000   0.00000
  88       14F-1       -0.00009   0.00130   0.00077   0.00000   0.00000
  89       14F+2       -0.00007   0.00032  -0.00050   0.00035  -0.00098
  90       14F-2        0.00000   0.00000   0.00000   0.00000   0.00000
  91       14F+3        0.00000   0.00000   0.00000   0.00000   0.00000
  92       14F-3       -0.00009   0.00067   0.00041   0.00000   0.00000
  93 3   Cl 1S         -0.21267  -0.04787  -0.13373  -0.03812   0.03571
  94        2S          0.71753   0.16141   0.45515   0.13003  -0.12187
  95        3S         -0.02129  -0.00321  -0.00730  -0.00158   0.00077
  96        4S          0.05582   0.01371   0.03744   0.01095  -0.01092
  97        5S         -0.00220  -0.00328  -0.00692  -0.00355   0.00804
  98        6S         -0.00060   0.00285   0.00070  -0.00077   0.00223
  99        7PX         0.00000   0.00000   0.00000   0.00000   0.00000
 100        7PY        -0.35759   0.23102   0.54648   0.22652  -0.31177
 101        7PZ        -0.20310   0.17832   0.33542   0.14010  -0.18377
 102        8PX         0.00000   0.00000   0.00000   0.00000   0.00000
 103        8PY         0.00637  -0.00460  -0.00877  -0.00342   0.00518
 104        8PZ         0.00365  -0.00379  -0.00568  -0.00217   0.00360
 105        9PX         0.00000   0.00000   0.00000   0.00000   0.00000
 106        9PY        -0.02034   0.01412   0.03331   0.01409  -0.01998
 107        9PZ        -0.01160   0.01102   0.02056   0.00872  -0.01194
 108       10PX         0.00000   0.00000   0.00000   0.00000   0.00000
 109       10PY         0.00251   0.00048  -0.00094  -0.00094   0.00308
 110       10PZ         0.00141  -0.00022  -0.00059  -0.00097   0.00216
 111       11PX         0.00000   0.00000   0.00000   0.00000   0.00000
 112       11PY         0.00006   0.00012   0.00000  -0.00006   0.00020
 113       11PZ         0.00009   0.00024   0.00010  -0.00016   0.00018
 114       12D 0       -0.00006   0.00001   0.00001   0.00001   0.00000
 115       12D+1        0.00000   0.00000   0.00000   0.00000   0.00000
 116       12D-1        0.00020   0.00023   0.00043   0.00024  -0.00035
 117       12D+2       -0.00010  -0.00015  -0.00036  -0.00014   0.00022
 118       12D-2        0.00000   0.00000   0.00000   0.00000   0.00000
 119       13D 0       -0.00002  -0.00043  -0.00013   0.00009   0.00004
 120       13D+1        0.00000   0.00000   0.00000   0.00000   0.00000
 121       13D-1        0.00048  -0.00146  -0.00189  -0.00091   0.00210
 122       13D+2       -0.00053   0.00051   0.00152   0.00066  -0.00133
 123       13D-2        0.00000   0.00000   0.00000   0.00000   0.00000
 124       14D 0       -0.00009  -0.00010  -0.00001  -0.00008   0.00007
 125       14D+1        0.00000   0.00000   0.00000   0.00000   0.00000
 126       14D-1        0.00035  -0.00001   0.00030  -0.00015   0.00065
 127       14D+2       -0.00030  -0.00060  -0.00034   0.00006  -0.00053
 128       14D-2        0.00000   0.00000   0.00000   0.00000   0.00000
 129       15F 0        0.00000  -0.00002   0.00002  -0.00002   0.00002
 130       15F+1        0.00000   0.00000   0.00000   0.00000   0.00000
 131       15F-1        0.00001  -0.00005  -0.00004   0.00004  -0.00002
 132       15F+2        0.00000   0.00002   0.00004  -0.00004  -0.00001
 133       15F-2        0.00000   0.00000   0.00000   0.00000   0.00000
 134       15F+3        0.00000   0.00000   0.00000   0.00000   0.00000
 135       15F-3       -0.00003  -0.00001   0.00006   0.00003  -0.00005
 136       16F 0       -0.00007   0.00029   0.00010   0.00014  -0.00034
 137       16F+1        0.00000   0.00000   0.00000   0.00000   0.00000
 138       16F-1        0.00004  -0.00040  -0.00023  -0.00013   0.00037
 139       16F+2       -0.00020   0.00041   0.00045   0.00029  -0.00060
 140       16F-2        0.00000   0.00000   0.00000   0.00000   0.00000
 141       16F+3        0.00000   0.00000   0.00000   0.00000   0.00000
 142       16F-3       -0.00012   0.00003   0.00026   0.00008  -0.00024
 143 4   Cl 1S         -0.13403   0.14226  -0.02020  -0.03794   0.03614
 144        2S          0.45207  -0.48354   0.07013   0.12945  -0.12338
 145        3S         -0.01350   0.00808  -0.00058  -0.00157   0.00081
 146        4S          0.03521  -0.03997   0.00538   0.01090  -0.01105
 147        5S         -0.00164   0.00768  -0.00036  -0.00353   0.00813
 148        6S          0.00013  -0.00195  -0.00223  -0.00079   0.00225
 149        7PX         0.00000   0.00000   0.00000   0.00000   0.00000
 150        7PY         0.22315   0.58811  -0.04980  -0.22313   0.31160
 151        7PZ        -0.11053  -0.38016  -0.00196   0.13860  -0.18450
 152        8PX         0.00000   0.00000   0.00000   0.00000   0.00000
 153        8PY        -0.00380  -0.00988   0.00003   0.00336  -0.00520
 154        8PZ         0.00181   0.00683   0.00070  -0.00216   0.00364
 155        9PX         0.00000   0.00000   0.00000   0.00000   0.00000
 156        9PY         0.01270   0.03587  -0.00301  -0.01389   0.01997
 157        9PZ        -0.00633  -0.02334  -0.00020   0.00863  -0.01199
 158       10PX         0.00000   0.00000   0.00000   0.00000   0.00000
 159       10PY        -0.00179  -0.00058   0.00090   0.00094  -0.00309
 160       10PZ         0.00086   0.00065  -0.00008  -0.00098   0.00219
 161       11PX         0.00000   0.00000   0.00000   0.00000   0.00000
 162       11PY         0.00001   0.00006   0.00010   0.00005  -0.00020
 163       11PZ         0.00013  -0.00020  -0.00016  -0.00016   0.00019
 164       12D 0       -0.00004  -0.00001   0.00000   0.00002   0.00000
 165       12D+1        0.00000   0.00000   0.00000   0.00000   0.00000
 166       12D-1       -0.00014   0.00049   0.00000  -0.00024   0.00035
 167       12D+2       -0.00008   0.00039  -0.00003  -0.00014   0.00022
 168       12D-2        0.00000   0.00000   0.00000   0.00000   0.00000
 169       13D 0       -0.00011   0.00034   0.00033   0.00009   0.00006
 170       13D+1        0.00000   0.00000   0.00000   0.00000   0.00000
 171       13D-1       -0.00023  -0.00237  -0.00040   0.00090  -0.00212
 172       13D+2       -0.00037  -0.00159   0.00026   0.00065  -0.00133
 173       13D-2        0.00000   0.00000   0.00000   0.00000   0.00000
 174       14D 0       -0.00007   0.00006   0.00010  -0.00008   0.00007
 175       14D+1        0.00000   0.00000   0.00000   0.00000   0.00000
 176       14D-1       -0.00023   0.00025  -0.00015   0.00015  -0.00065
 177       14D+2       -0.00036   0.00058   0.00039   0.00007  -0.00053
 178       14D-2        0.00000   0.00000   0.00000   0.00000   0.00000
 179       15F 0       -0.00001  -0.00001   0.00003  -0.00002   0.00002
 180       15F+1        0.00000   0.00000   0.00000   0.00000   0.00000
 181       15F-1        0.00000  -0.00006  -0.00002  -0.00004   0.00002
 182       15F+2        0.00000  -0.00005   0.00001  -0.00004  -0.00001
 183       15F-2        0.00000   0.00000   0.00000   0.00000   0.00000
 184       15F+3        0.00000   0.00000   0.00000   0.00000   0.00000
 185       15F-3        0.00002   0.00005  -0.00004  -0.00003   0.00005
 186       16F 0       -0.00001  -0.00022  -0.00021   0.00014  -0.00034
 187       16F+1        0.00000   0.00000   0.00000   0.00000   0.00000
 188       16F-1        0.00002  -0.00040  -0.00024   0.00013  -0.00038
 189       16F+2       -0.00011  -0.00060  -0.00015   0.00029  -0.00060
 190       16F-2        0.00000   0.00000   0.00000   0.00000   0.00000
 191       16F+3        0.00000   0.00000   0.00000   0.00000   0.00000
 192       16F-3        0.00010   0.00025  -0.00010  -0.00008   0.00024
                          11        12        13        14        15
     Eigenvalues --     2.00000   2.00000   1.98119   1.97612   1.97457
   1 1   O  1S          0.00003   0.00000  -0.18625  -0.06229  -0.00056
   2        2S          0.00001   0.00000   0.48233   0.16861   0.00151
   3        3S          0.00000   0.00000   0.13567   0.04846   0.00044
   4        4S          0.00003   0.00000   0.29417   0.13347   0.00118
   5        5S          0.00005   0.00000   0.01959   0.02318   0.00024
   6        6PX         0.00000   0.00000   0.00000   0.00000   0.00000
   7        6PY         0.00000   0.00000   0.00005  -0.00061   0.04380
   8        6PZ         0.00000   0.00000  -0.00867   0.02893   0.00035
   9        7PX         0.00000   0.00000   0.00000   0.00000   0.00000
  10        7PY         0.00000  -0.00001   0.00008  -0.00074   0.05454
  11        7PZ         0.00000   0.00000  -0.01512   0.03076   0.00041
  12        8PX         0.00000   0.00000   0.00000   0.00000   0.00000
  13        8PY         0.00000  -0.00006   0.00008  -0.00045   0.04005
  14        8PZ         0.00003   0.00000   0.04935   0.02583   0.00035
  15        9PX         0.00000   0.00000   0.00000   0.00000   0.00000
  16        9PY         0.00000  -0.00001   0.00000   0.00003   0.00091
  17        9PZ         0.00000   0.00000   0.01377  -0.00046  -0.00002
  18       10D 0        0.00000   0.00000   0.00497   0.00001   0.00000
  19       10D+1        0.00000   0.00000   0.00000   0.00000   0.00000
  20       10D-1        0.00000   0.00000  -0.00001   0.00003  -0.00209
  21       10D+2        0.00000   0.00000  -0.00001  -0.00002   0.00000
  22       10D-2        0.00000   0.00000   0.00000   0.00000   0.00000
  23       11D 0       -0.00001   0.00000   0.01089   0.00136  -0.00001
  24       11D+1        0.00000   0.00000   0.00000   0.00000   0.00000
  25       11D-1        0.00000   0.00000  -0.00001   0.00006  -0.00533
  26       11D+2        0.00000   0.00000   0.00026   0.00099   0.00000
  27       11D-2        0.00000   0.00000   0.00000   0.00000   0.00000
  28       12D 0       -0.00002   0.00000  -0.01506  -0.00335  -0.00006
  29       12D+1        0.00000   0.00000   0.00000   0.00000   0.00000
  30       12D-1        0.00000   0.00002  -0.00003   0.00002  -0.00404
  31       12D+2        0.00000   0.00000   0.00144   0.00134   0.00000
  32       12D-2        0.00000   0.00000   0.00000   0.00000   0.00000
  33       13F 0        0.00000   0.00000  -0.00275  -0.00031   0.00000
  34       13F+1        0.00000   0.00000   0.00000   0.00000   0.00000
  35       13F-1        0.00000   0.00000   0.00000  -0.00002   0.00146
  36       13F+2        0.00000   0.00000   0.00021  -0.00005   0.00000
  37       13F-2        0.00000   0.00000   0.00000   0.00000   0.00000
  38       13F+3        0.00000   0.00000   0.00000   0.00000   0.00000
  39       13F-3        0.00000   0.00000   0.00000   0.00000   0.00008
  40       14F 0        0.00000   0.00000  -0.00008  -0.00055   0.00001
  41       14F+1        0.00000   0.00000   0.00000   0.00000   0.00000
  42       14F-1        0.00000   0.00000  -0.00001   0.00001   0.00014
  43       14F+2        0.00000   0.00000  -0.00070  -0.00102   0.00000
  44       14F-2        0.00000   0.00000   0.00000   0.00000   0.00000
  45       14F+3        0.00000   0.00000   0.00000   0.00000   0.00000
  46       14F-3        0.00000   0.00000   0.00000  -0.00001   0.00044
  47 2   C  1S         -0.00030  -0.00001  -0.08413   0.04568   0.00045
  48        2S          0.00003   0.00000   0.19365  -0.12644  -0.00122
  49        3S          0.00002   0.00000   0.04619  -0.02633  -0.00022
  50        4S         -0.00013  -0.00001   0.00183  -0.05566  -0.00055
  51        5S         -0.00005   0.00000  -0.00480  -0.02452  -0.00030
  52        6PX         0.00000   0.00000   0.00000   0.00000   0.00000
  53        6PY         0.00000   0.00001   0.00025  -0.00148   0.07099
  54        6PZ        -0.00001   0.00000   0.06386   0.05671   0.00042
  55        7PX         0.00000   0.00000   0.00000   0.00000   0.00000
  56        7PY         0.00000  -0.00004   0.00044  -0.00191   0.09629
  57        7PZ         0.00005   0.00000   0.04942   0.06616   0.00063
  58        8PX         0.00000   0.00000   0.00000   0.00000   0.00000
  59        8PY         0.00000   0.00009   0.00024   0.00005  -0.00770
  60        8PZ        -0.00001   0.00000  -0.01822  -0.00339  -0.00002
  61        9PX         0.00000   0.00000   0.00000   0.00000   0.00000
  62        9PY         0.00000   0.00001   0.00006  -0.00012   0.00599
  63        9PZ         0.00000   0.00000  -0.00728   0.00333   0.00007
  64       10D 0        0.00000   0.00000   0.01558   0.00258   0.00003
  65       10D+1        0.00000   0.00000   0.00000   0.00000   0.00000
  66       10D-1        0.00000   0.00000  -0.00005   0.00021  -0.00583
  67       10D+2        0.00000   0.00000  -0.00262   0.00657   0.00005
  68       10D-2        0.00000   0.00000   0.00000   0.00000   0.00000
  69       11D 0       -0.00001   0.00000   0.00614  -0.00217   0.00004
  70       11D+1        0.00000   0.00000   0.00000   0.00000   0.00000
  71       11D-1        0.00000   0.00007  -0.00014   0.00040  -0.01915
  72       11D+2        0.00005   0.00000  -0.00314   0.01165   0.00017
  73       11D-2        0.00000   0.00000   0.00000   0.00000   0.00000
  74       12D 0       -0.00003   0.00000  -0.02006  -0.00784  -0.00007
  75       12D+1        0.00000   0.00000   0.00000   0.00000   0.00000
  76       12D-1        0.00000   0.00001  -0.00002  -0.00013   0.00452
  77       12D+2        0.00001   0.00000  -0.00111  -0.00267   0.00000
  78       12D-2        0.00000   0.00000   0.00000   0.00000   0.00000
  79       13F 0        0.00000   0.00000   0.00590  -0.00204  -0.00001
  80       13F+1        0.00000   0.00000   0.00000   0.00000   0.00000
  81       13F-1        0.00000   0.00000   0.00002  -0.00008   0.00230
  82       13F+2       -0.00001   0.00000   0.00254  -0.00423  -0.00004
  83       13F-2        0.00000   0.00000   0.00000   0.00000   0.00000
  84       13F+3        0.00000   0.00000   0.00000   0.00000   0.00000
  85       13F-3        0.00000   0.00001  -0.00002   0.00005  -0.00264
  86       14F 0       -0.00003   0.00000  -0.00661  -0.00482  -0.00007
  87       14F+1        0.00000   0.00000   0.00000   0.00000   0.00000
  88       14F-1        0.00000   0.00001  -0.00002  -0.00007   0.00125
  89       14F+2       -0.00003   0.00000  -0.00288  -0.00582  -0.00007
  90       14F-2        0.00000   0.00000   0.00000   0.00000   0.00000
  91       14F+3        0.00000   0.00000   0.00000   0.00000   0.00000
  92       14F-3        0.00000   0.00001  -0.00002  -0.00001   0.00000
  93 3   Cl 1S          0.73009  -0.67922   0.01097  -0.04688  -0.05298
  94        2S          0.00728  -0.00693  -0.03980   0.17584   0.19819
  95        3S          0.00011  -0.00011   0.08996  -0.37429  -0.42463
  96        4S          0.00016  -0.00016   0.01012  -0.04606  -0.05334
  97        5S          0.00000   0.00006   0.04954  -0.22253  -0.26160
  98        6S          0.00001   0.00007  -0.00257   0.01060   0.00566
  99        7PX         0.00000   0.00000   0.00000   0.00000   0.00000
 100        7PY        -0.00085   0.00038  -0.00729   0.01477   0.00083
 101        7PZ        -0.00045   0.00031  -0.00905   0.00129   0.00798
 102        8PX         0.00000   0.00000   0.00000   0.00000   0.00000
 103        8PY         0.00007  -0.00006   0.01295  -0.02021   0.01542
 104        8PZ         0.00005  -0.00004   0.02293   0.01042  -0.01061
 105        9PX         0.00000   0.00000   0.00000   0.00000   0.00000
 106        9PY        -0.00008   0.00005   0.00587  -0.00942   0.00647
 107        9PZ        -0.00005   0.00004   0.00978   0.00393  -0.00490
 108       10PX         0.00000   0.00000   0.00000   0.00000   0.00000
 109       10PY        -0.00001   0.00007   0.00359   0.00187   0.01571
 110       10PZ        -0.00002   0.00004   0.00300   0.00954  -0.00090
 111       11PX         0.00000   0.00000   0.00000   0.00000   0.00000
 112       11PY         0.00000   0.00001  -0.00118   0.00375   0.00225
 113       11PZ         0.00000   0.00000   0.00102   0.00161   0.00261
 114       12D 0        0.00000   0.00000   0.00033   0.00146  -0.00085
 115       12D+1        0.00000   0.00000   0.00000   0.00000   0.00000
 116       12D-1        0.00000  -0.00001   0.00337  -0.00562  -0.00586
 117       12D+2        0.00000   0.00000  -0.00261   0.00533   0.00306
 118       12D-2        0.00000   0.00000   0.00000   0.00000   0.00000
 119       13D 0        0.00000   0.00000  -0.00049   0.00218  -0.00230
 120       13D+1        0.00000   0.00000   0.00000   0.00000   0.00000
 121       13D-1        0.00003  -0.00002   0.00384  -0.00494  -0.00492
 122       13D+2       -0.00001   0.00001  -0.00146   0.00595   0.00149
 123       13D-2        0.00000   0.00000   0.00000   0.00000   0.00000
 124       14D 0        0.00000   0.00000  -0.00002  -0.00052  -0.00067
 125       14D+1        0.00000   0.00000   0.00000   0.00000   0.00000
 126       14D-1       -0.00001   0.00002  -0.00188   0.00134   0.00181
 127       14D+2        0.00001  -0.00002  -0.00102  -0.00184  -0.00289
 128       14D-2        0.00000   0.00000   0.00000   0.00000   0.00000
 129       15F 0        0.00000   0.00000  -0.00033   0.00136   0.00086
 130       15F+1        0.00000   0.00000   0.00000   0.00000   0.00000
 131       15F-1        0.00000   0.00000   0.00039  -0.00017  -0.00156
 132       15F+2       -0.00001   0.00000  -0.00076   0.00211   0.00219
 133       15F-2        0.00000   0.00000   0.00000   0.00000   0.00000
 134       15F+3        0.00000   0.00000   0.00000   0.00000   0.00000
 135       15F-3        0.00000   0.00000  -0.00058   0.00176   0.00086
 136       16F 0        0.00000   0.00000  -0.00044   0.00014  -0.00045
 137       16F+1        0.00000   0.00000   0.00000   0.00000   0.00000
 138       16F-1        0.00000   0.00000  -0.00024   0.00026  -0.00026
 139       16F+2        0.00000   0.00000   0.00012   0.00026  -0.00095
 140       16F-2        0.00000   0.00000   0.00000   0.00000   0.00000
 141       16F+3        0.00000   0.00000   0.00000   0.00000   0.00000
 142       16F-3        0.00000   0.00000   0.00091   0.00012  -0.00071
 143 4   Cl 1S          0.67928   0.73005   0.01116  -0.04853   0.05135
 144        2S          0.00674   0.00741  -0.04046   0.18197  -0.19208
 145        3S          0.00011   0.00012   0.09146  -0.38741   0.41161
 146        4S          0.00014   0.00017   0.01034  -0.04768   0.05172
 147        5S          0.00001  -0.00006   0.04973  -0.22996   0.25325
 148        6S          0.00002  -0.00006  -0.00307   0.01120  -0.00558
 149        7PX         0.00000   0.00000   0.00000   0.00000   0.00000
 150        7PY         0.00083   0.00046   0.00741  -0.01513   0.00055
 151        7PZ        -0.00044  -0.00036  -0.00923   0.00175  -0.00817
 152        8PX         0.00000   0.00000   0.00000   0.00000   0.00000
 153        8PY        -0.00007  -0.00006  -0.01287   0.02019   0.01596
 154        8PZ         0.00005   0.00005   0.02314   0.00988   0.01119
 155        9PX         0.00000   0.00000   0.00000   0.00000   0.00000
 156        9PY         0.00008   0.00006  -0.00598   0.00953   0.00660
 157        9PZ        -0.00005  -0.00004   0.00997   0.00363   0.00521
 158       10PX         0.00000   0.00000   0.00000   0.00000   0.00000
 159       10PY         0.00000   0.00006  -0.00316  -0.00254   0.01590
 160       10PZ        -0.00001  -0.00004   0.00274   0.00960   0.00116
 161       11PX         0.00000   0.00000   0.00000   0.00000   0.00000
 162       11PY         0.00000   0.00001   0.00124  -0.00385   0.00213
 163       11PZ         0.00000   0.00000   0.00097   0.00171  -0.00259
 164       12D 0        0.00000   0.00000   0.00036   0.00143   0.00095
 165       12D+1        0.00000   0.00000   0.00000   0.00000   0.00000
 166       12D-1        0.00000  -0.00001  -0.00346   0.00596  -0.00582
 167       12D+2        0.00000   0.00000  -0.00266   0.00552  -0.00294
 168       12D-2        0.00000   0.00000   0.00000   0.00000   0.00000
 169       13D 0        0.00000   0.00000  -0.00047   0.00207   0.00245
 170       13D+1        0.00000   0.00000   0.00000   0.00000   0.00000
 171       13D-1       -0.00003  -0.00002  -0.00378   0.00518  -0.00479
 172       13D+2       -0.00001  -0.00001  -0.00138   0.00601  -0.00127
 173       13D-2        0.00000   0.00000   0.00000   0.00000   0.00000
 174       14D 0        0.00000   0.00000  -0.00003  -0.00055   0.00068
 175       14D+1        0.00000   0.00000   0.00000   0.00000   0.00000
 176       14D-1        0.00001   0.00002   0.00198  -0.00146   0.00185
 177       14D+2        0.00001   0.00002  -0.00092  -0.00201   0.00291
 178       14D-2        0.00000   0.00000   0.00000   0.00000   0.00000
 179       15F 0        0.00000   0.00000  -0.00032   0.00142  -0.00084
 180       15F+1        0.00000   0.00000   0.00000   0.00000   0.00000
 181       15F-1        0.00000   0.00000  -0.00041   0.00026  -0.00161
 182       15F+2        0.00000   0.00000  -0.00077   0.00224  -0.00217
 183       15F-2        0.00000   0.00000   0.00000   0.00000   0.00000
 184       15F+3        0.00000   0.00000   0.00000   0.00000   0.00000
 185       15F-3        0.00000   0.00000   0.00059  -0.00182   0.00082
 186       16F 0        0.00000   0.00000  -0.00044   0.00010   0.00048
 187       16F+1        0.00000   0.00000   0.00000   0.00000   0.00000
 188       16F-1        0.00000   0.00000   0.00026  -0.00024  -0.00025
 189       16F+2        0.00000   0.00000   0.00017   0.00021   0.00099
 190       16F-2        0.00000   0.00000   0.00000   0.00000   0.00000
 191       16F+3        0.00000   0.00000   0.00000   0.00000   0.00000
 192       16F-3        0.00000   0.00000  -0.00095  -0.00007  -0.00072
                          16        17        18        19        20
     Eigenvalues --     1.96276   1.95778   1.95155   1.94901   1.94744
   1 1   O  1S          0.03968  -0.00021  -0.00868   0.00000   0.00073
   2        2S         -0.12870   0.00067   0.02238   0.00000  -0.00197
   3        3S         -0.04224   0.00023   0.00697   0.00000  -0.00055
   4        4S         -0.23870   0.00145   0.02420   0.00000  -0.00065
   5        5S         -0.05964   0.00048   0.02426   0.00000   0.00005
   6        6PX         0.00000   0.00000   0.00000   0.02700   0.00000
   7        6PY         0.00202   0.29816  -0.00038   0.00000   0.11218
   8        6PZ        -0.29548   0.00219  -0.00867   0.00000   0.00297
   9        7PX         0.00000   0.00000   0.00000   0.03421   0.00000
  10        7PY         0.00252   0.37031  -0.00049   0.00000   0.13715
  11        7PZ        -0.34989   0.00263  -0.01193   0.00000   0.00360
  12        8PX         0.00000   0.00000   0.00000   0.01685   0.00000
  13        8PY         0.00187   0.27129  -0.00034   0.00000   0.09559
  14        8PZ        -0.15251   0.00115  -0.00066   0.00000   0.00108
  15        9PX         0.00000   0.00000   0.00000  -0.01197   0.00000
  16        9PY         0.00028   0.03753  -0.00005   0.00000   0.01522
  17        9PZ         0.00131  -0.00008   0.00068   0.00000  -0.00011
  18       10D 0        0.01321  -0.00010   0.00027   0.00000  -0.00014
  19       10D+1        0.00000   0.00000   0.00000  -0.00310   0.00000
  20       10D-1       -0.00006  -0.00900   0.00002   0.00000  -0.00205
  21       10D+2       -0.00002   0.00000   0.00058   0.00000   0.00000
  22       10D-2        0.00000   0.00000   0.00000   0.00000   0.00000
  23       11D 0        0.02658  -0.00021   0.00149   0.00000  -0.00027
  24       11D+1        0.00000   0.00000   0.00000  -0.00869   0.00000
  25       11D-1       -0.00018  -0.02623   0.00009   0.00000  -0.00269
  26       11D+2        0.00116  -0.00003   0.00048   0.00000  -0.00006
  27       11D-2        0.00000   0.00000   0.00000   0.00001   0.00000
  28       12D 0       -0.00329   0.00002  -0.00129   0.00000   0.00038
  29       12D+1        0.00000   0.00000   0.00000  -0.00697   0.00000
  30       12D-1       -0.00014  -0.01718   0.00006   0.00000  -0.00148
  31       12D+2        0.00218  -0.00006   0.00225   0.00000  -0.00006
  32       12D-2        0.00000   0.00000   0.00000  -0.00002   0.00000
  33       13F 0       -0.00481   0.00003  -0.00006   0.00000   0.00006
  34       13F+1        0.00000   0.00000   0.00000   0.00165   0.00000
  35       13F-1        0.00004   0.00562  -0.00002   0.00000   0.00097
  36       13F+2       -0.00068   0.00000  -0.00017   0.00000   0.00001
  37       13F-2        0.00000   0.00000   0.00000   0.00000   0.00000
  38       13F+3        0.00000   0.00000   0.00000  -0.00002   0.00000
  39       13F-3        0.00001   0.00091   0.00000   0.00000   0.00046
  40       14F 0       -0.00409   0.00003  -0.00026   0.00000   0.00005
  41       14F+1        0.00000   0.00000   0.00000   0.00110   0.00000
  42       14F-1        0.00003   0.00423  -0.00004   0.00000  -0.00005
  43       14F+2       -0.00163   0.00004   0.00030   0.00000   0.00007
  44       14F-2        0.00000   0.00000   0.00000   0.00000   0.00000
  45       14F+3        0.00000   0.00000   0.00000   0.00074   0.00000
  46       14F-3        0.00001   0.00102   0.00000   0.00000   0.00013
  47 2   C  1S         -0.11376   0.00072  -0.03511   0.00000  -0.00228
  48        2S          0.30971  -0.00193   0.09864   0.00000   0.00651
  49        3S          0.08119  -0.00057   0.02450   0.00000   0.00140
  50        4S          0.10556   0.00024   0.05165   0.00000   0.00502
  51        5S          0.00833   0.00022   0.01329   0.00000   0.00079
  52        6PX         0.00000   0.00000   0.00000   0.10998   0.00000
  53        6PY         0.00082   0.14470  -0.00036   0.00000   0.01592
  54        6PZ         0.14809  -0.00124  -0.04723   0.00000  -0.00531
  55        7PX         0.00000   0.00000   0.00000   0.15178   0.00000
  56        7PY         0.00127   0.18817  -0.00042   0.00000   0.02398
  57        7PZ         0.15710  -0.00137  -0.06841   0.00000  -0.00694
  58        8PX         0.00000   0.00000   0.00000   0.04518   0.00000
  59        8PY         0.00035   0.01566   0.00009   0.00000   0.00450
  60        8PZ        -0.00141  -0.00032  -0.02635   0.00000  -0.00086
  61        9PX         0.00000   0.00000   0.00000   0.01275   0.00000
  62        9PY        -0.00003  -0.00876  -0.00006   0.00000  -0.00998
  63        9PZ        -0.00251   0.00004  -0.01095   0.00000   0.00015
  64       10D 0        0.01578  -0.00016   0.01080   0.00000  -0.00027
  65       10D+1        0.00000   0.00000   0.00000  -0.00462   0.00000
  66       10D-1        0.00015   0.02077  -0.00008   0.00000   0.00403
  67       10D+2        0.00006  -0.00007   0.00404   0.00000  -0.00023
  68       10D-2        0.00000   0.00000   0.00000   0.00011   0.00000
  69       11D 0        0.00145   0.00004   0.03298   0.00000  -0.00006
  70       11D+1        0.00000   0.00000   0.00000  -0.02712   0.00000
  71       11D-1        0.00007   0.02001   0.00006   0.00000   0.00293
  72       11D+2       -0.00426  -0.00012   0.01561   0.00000  -0.00046
  73       11D-2        0.00000   0.00000   0.00000   0.00017   0.00000
  74       12D 0        0.00022   0.00008  -0.02365   0.00000   0.00077
  75       12D+1        0.00000   0.00000   0.00000  -0.00825   0.00000
  76       12D-1       -0.00018  -0.01542   0.00006   0.00000   0.01409
  77       12D+2        0.00452  -0.00013  -0.01769   0.00000   0.00013
  78       12D-2        0.00000   0.00000   0.00000  -0.00002   0.00000
  79       13F 0        0.00916  -0.00003  -0.00064   0.00000  -0.00004
  80       13F+1        0.00000   0.00000   0.00000   0.00246   0.00000
  81       13F-1        0.00002   0.00512   0.00008   0.00000   0.00850
  82       13F+2        0.00170   0.00003   0.00166   0.00000   0.00017
  83       13F-2        0.00000   0.00000   0.00000  -0.00007   0.00000
  84       13F+3        0.00000   0.00000   0.00000  -0.00478   0.00000
  85       13F-3       -0.00004  -0.00289   0.00002   0.00000   0.00148
  86       14F 0       -0.01006   0.00009  -0.00466   0.00000   0.00037
  87       14F+1        0.00000   0.00000   0.00000  -0.00054   0.00000
  88       14F-1        0.00001   0.00132  -0.00009   0.00000   0.01439
  89       14F+2       -0.00329   0.00008  -0.00102   0.00000   0.00016
  90       14F-2        0.00000   0.00000   0.00000   0.00002   0.00000
  91       14F+3        0.00000   0.00000   0.00000  -0.00318   0.00000
  92       14F-3       -0.00001   0.00074  -0.00002   0.00000   0.00349
  93 3   Cl 1S         -0.01175   0.01510  -0.01030   0.00000  -0.00162
  94        2S          0.04554  -0.05757   0.03913   0.00000   0.00632
  95        3S         -0.09254   0.12316  -0.08483   0.00000  -0.01285
  96        4S         -0.01252   0.01718  -0.01327   0.00000  -0.00251
  97        5S         -0.07742   0.11755  -0.07957   0.00000  -0.01413
  98        6S         -0.00766   0.00760  -0.02240   0.00000  -0.01352
  99        7PX         0.00000   0.00000   0.00000  -0.14806   0.00000
 100        7PY        -0.00318   0.00357  -0.10553   0.00000   0.08814
 101        7PZ        -0.01428   0.04411   0.11068   0.00000  -0.14344
 102        8PX         0.00000   0.00000   0.00000   0.34885   0.00000
 103        8PY         0.00409   0.00391   0.24397   0.00000  -0.20664
 104        8PZ         0.03138  -0.09675  -0.26404   0.00000   0.33956
 105        9PX         0.00000   0.00000   0.00000   0.16291   0.00000
 106        9PY         0.00362  -0.00209   0.11522   0.00000  -0.10002
 107        9PZ         0.01608  -0.04822  -0.12643   0.00000   0.16118
 108       10PX         0.00000   0.00000   0.00000   0.19669   0.00000
 109       10PY        -0.01501   0.03114   0.12645   0.00000  -0.13387
 110       10PZ         0.00609  -0.03905  -0.17893   0.00000   0.21182
 111       11PX         0.00000   0.00000   0.00000   0.00102   0.00000
 112       11PY        -0.00084   0.00443   0.00043   0.00000  -0.00677
 113       11PZ         0.00011   0.00256  -0.00770   0.00000   0.01052
 114       12D 0        0.00301  -0.00553  -0.00678   0.00000   0.00084
 115       12D+1        0.00000   0.00000   0.00000   0.00543   0.00000
 116       12D-1        0.00552  -0.01029   0.00125   0.00000  -0.00076
 117       12D+2       -0.00099   0.00443  -0.00909   0.00000   0.00025
 118       12D-2        0.00000   0.00000   0.00000   0.01046   0.00000
 119       13D 0        0.00208  -0.00844  -0.00831   0.00000  -0.00087
 120       13D+1        0.00000   0.00000   0.00000   0.00814   0.00000
 121       13D-1        0.00533  -0.00701   0.00084   0.00000  -0.00032
 122       13D+2        0.00156   0.00060  -0.01118   0.00000  -0.00195
 123       13D-2        0.00000   0.00000   0.00000   0.01621   0.00000
 124       14D 0        0.00228  -0.00603  -0.00796   0.00000   0.00149
 125       14D+1        0.00000   0.00000   0.00000   0.00176   0.00000
 126       14D-1       -0.00031  -0.00184  -0.00357   0.00000   0.00158
 127       14D+2        0.00310  -0.00289  -0.00569   0.00000   0.00059
 128       14D-2        0.00000   0.00000   0.00000   0.00528   0.00000
 129       15F 0        0.00029  -0.00019  -0.00184   0.00000   0.00067
 130       15F+1        0.00000   0.00000   0.00000   0.00049   0.00000
 131       15F-1        0.00141  -0.00353  -0.00399   0.00000   0.00278
 132       15F+2       -0.00036   0.00229  -0.00117   0.00000   0.00009
 133       15F-2        0.00000   0.00000   0.00000   0.00431   0.00000
 134       15F+3        0.00000   0.00000   0.00000  -0.00428   0.00000
 135       15F-3        0.00030   0.00051  -0.00312   0.00000   0.00082
 136       16F 0       -0.00157  -0.00131  -0.00047   0.00000  -0.00047
 137       16F+1        0.00000   0.00000   0.00000  -0.00047   0.00000
 138       16F-1       -0.00013  -0.00054  -0.00211   0.00000   0.00149
 139       16F+2       -0.00022  -0.00209  -0.00054   0.00000  -0.00060
 140       16F-2        0.00000   0.00000   0.00000   0.00226   0.00000
 141       16F+3        0.00000   0.00000   0.00000  -0.00249   0.00000
 142       16F-3        0.00117  -0.00162  -0.00113   0.00000  -0.00056
 143 4   Cl 1S         -0.01207  -0.01502  -0.01027   0.00000   0.00075
 144        2S          0.04675   0.05720   0.03902   0.00000  -0.00302
 145        3S         -0.09521  -0.12264  -0.08459   0.00000   0.00539
 146        4S         -0.01281  -0.01707  -0.01323   0.00000   0.00131
 147        5S         -0.08043  -0.11834  -0.07976   0.00000   0.00611
 148        6S         -0.00805  -0.00795  -0.02235   0.00000   0.01177
 149        7PX         0.00000   0.00000   0.00000  -0.14847   0.00000
 150        7PY         0.00334   0.00438   0.10651   0.00000   0.09244
 151        7PZ        -0.01488  -0.04431   0.11025   0.00000   0.13688
 152        8PX         0.00000   0.00000   0.00000   0.34986   0.00000
 153        8PY        -0.00406   0.00241  -0.24620   0.00000  -0.21545
 154        8PZ         0.03251   0.09688  -0.26321   0.00000  -0.32523
 155        9PX         0.00000   0.00000   0.00000   0.16337   0.00000
 156        9PY        -0.00380  -0.00299  -0.11631   0.00000  -0.10425
 157        9PZ         0.01677   0.04841  -0.12599   0.00000  -0.15419
 158       10PX         0.00000   0.00000   0.00000   0.19658   0.00000
 159       10PY         0.01564   0.03045  -0.12754   0.00000  -0.13500
 160       10PZ         0.00615   0.03859  -0.17831   0.00000  -0.20405
 161       11PX         0.00000   0.00000   0.00000   0.00082   0.00000
 162       11PY         0.00090   0.00439  -0.00041   0.00000  -0.00630
 163       11PZ         0.00003  -0.00266  -0.00751   0.00000  -0.01034
 164       12D 0        0.00318   0.00565  -0.00690   0.00000  -0.00111
 165       12D+1        0.00000   0.00000   0.00000   0.00559   0.00000
 166       12D-1       -0.00570  -0.01038  -0.00133   0.00000  -0.00190
 167       12D+2       -0.00101  -0.00446  -0.00922   0.00000  -0.00117
 168       12D-2        0.00000   0.00000   0.00000  -0.01065   0.00000
 169       13D 0        0.00225   0.00858  -0.00844   0.00000   0.00059
 170       13D+1        0.00000   0.00000   0.00000   0.00829   0.00000
 171       13D-1       -0.00535  -0.00690  -0.00091   0.00000  -0.00131
 172       13D+2        0.00167  -0.00057  -0.01125   0.00000   0.00099
 173       13D-2        0.00000   0.00000   0.00000  -0.01635   0.00000
 174       14D 0        0.00236   0.00600  -0.00804   0.00000  -0.00132
 175       14D+1        0.00000   0.00000   0.00000   0.00177   0.00000
 176       14D-1        0.00034  -0.00169   0.00348   0.00000   0.00127
 177       14D+2        0.00317   0.00291  -0.00572   0.00000  -0.00033
 178       14D-2        0.00000   0.00000   0.00000  -0.00525   0.00000
 179       15F 0        0.00033   0.00021  -0.00191   0.00000  -0.00093
 180       15F+1        0.00000   0.00000   0.00000   0.00052   0.00000
 181       15F-1       -0.00147  -0.00360   0.00403   0.00000   0.00270
 182       15F+2       -0.00036  -0.00233  -0.00123   0.00000  -0.00051
 183       15F-2        0.00000   0.00000   0.00000  -0.00441   0.00000
 184       15F+3        0.00000   0.00000   0.00000  -0.00433   0.00000
 185       15F-3       -0.00032   0.00052   0.00315   0.00000   0.00107
 186       16F 0       -0.00157   0.00135  -0.00049   0.00000   0.00048
 187       16F+1        0.00000   0.00000   0.00000  -0.00047   0.00000
 188       16F-1        0.00014  -0.00048   0.00209   0.00000   0.00148
 189       16F+2       -0.00018   0.00212  -0.00056   0.00000   0.00059
 190       16F-2        0.00000   0.00000   0.00000  -0.00223   0.00000
 191       16F+3        0.00000   0.00000   0.00000  -0.00242   0.00000
 192       16F-3       -0.00119  -0.00159   0.00109   0.00000  -0.00053
                          21        22        23        24        25
     Eigenvalues --     1.94727   1.94711   1.93672   1.93111   0.06667
   1 1   O  1S          0.00000  -0.02730  -0.00043   0.00000   0.00000
   2        2S          0.00000   0.07380   0.00115   0.00000   0.00000
   3        3S          0.00000   0.02083   0.00034   0.00000   0.00000
   4        4S          0.00000   0.02956   0.00046   0.00000   0.00000
   5        5S          0.00000   0.00067  -0.00011   0.00000   0.00000
   6        6PX        -0.00043   0.00000   0.00000   0.29516  -0.34444
   7        6PY         0.00000   0.00621  -0.14058   0.00000   0.00000
   8        6PZ         0.00000  -0.10217  -0.00146   0.00000   0.00000
   9        7PX        -0.00053   0.00000   0.00000   0.36990  -0.39635
  10        7PY         0.00000   0.00769  -0.17479   0.00000   0.00000
  11        7PZ         0.00000  -0.12477  -0.00176   0.00000   0.00000
  12        8PX        -0.00034   0.00000   0.00000   0.24734  -0.07269
  13        8PY         0.00000   0.00552  -0.12075   0.00000   0.00000
  14        8PZ         0.00000  -0.04088  -0.00057   0.00000   0.00000
  15        9PX         0.00002   0.00000   0.00000   0.02573  -0.00395
  16        9PY         0.00000   0.00086  -0.02162   0.00000   0.00000
  17        9PZ         0.00000   0.00339   0.00007   0.00000   0.00000
  18       10D 0        0.00000   0.00476   0.00007   0.00000   0.00000
  19       10D+1        0.00003   0.00000   0.00000  -0.01037  -0.01311
  20       10D-1        0.00000  -0.00009   0.00021   0.00000   0.00000
  21       10D+2        0.00000   0.00002   0.00000   0.00000   0.00000
  22       10D-2       -0.00038   0.00000   0.00000   0.00000  -0.00001
  23       11D 0        0.00000   0.00926   0.00011   0.00000   0.00000
  24       11D+1        0.00006   0.00000   0.00000  -0.02826  -0.01104
  25       11D-1        0.00000  -0.00020  -0.00020   0.00000   0.00000
  26       11D+2        0.00000   0.00204   0.00003   0.00000   0.00000
  27       11D-2       -0.00172   0.00000   0.00000   0.00001   0.00001
  28       12D 0        0.00000  -0.01208  -0.00020   0.00000   0.00000
  29       12D+1        0.00004   0.00000   0.00000  -0.01257   0.01607
  30       12D-1        0.00000  -0.00008  -0.00763   0.00000   0.00000
  31       12D+2        0.00000   0.00217   0.00000   0.00000   0.00000
  32       12D-2       -0.00384   0.00000   0.00000   0.00000   0.00002
  33       13F 0        0.00000  -0.00190  -0.00003   0.00000   0.00000
  34       13F+1       -0.00001   0.00000   0.00000   0.00541   0.00390
  35       13F-1        0.00000   0.00004   0.00021   0.00000   0.00000
  36       13F+2        0.00000  -0.00047  -0.00001   0.00000   0.00000
  37       13F-2        0.00033   0.00000   0.00000   0.00000  -0.00001
  38       13F+3        0.00000   0.00000   0.00000   0.00105  -0.00254
  39       13F-3        0.00000   0.00002  -0.00045   0.00000   0.00000
  40       14F 0        0.00000  -0.00193   0.00000   0.00000   0.00000
  41       14F+1        0.00000   0.00000   0.00000   0.00348  -0.00532
  42       14F-1        0.00000   0.00004  -0.00071   0.00000   0.00000
  43       14F+2        0.00000  -0.00232  -0.00002   0.00000   0.00000
  44       14F-2        0.00119   0.00000   0.00000   0.00000  -0.00004
  45       14F+3        0.00000   0.00000   0.00000   0.00088  -0.00075
  46       14F-3        0.00000   0.00001  -0.00019   0.00000   0.00000
  47 2   C  1S          0.00000   0.07709   0.00099   0.00000   0.00000
  48        2S          0.00000  -0.22062  -0.00273   0.00000   0.00000
  49        3S          0.00000  -0.04756  -0.00049   0.00000   0.00000
  50        4S          0.00000  -0.16610  -0.00295   0.00000   0.00000
  51        5S          0.00000  -0.02144  -0.00039   0.00000   0.00000
  52        6PX        -0.00083   0.00000   0.00000   0.17318   0.30852
  53        6PY         0.00000  -0.00133   0.13922   0.00000   0.00000
  54        6PZ         0.00000   0.17374   0.00220   0.00000   0.00000
  55        7PX        -0.00108   0.00000   0.00000   0.22054   0.46743
  56        7PY         0.00000  -0.00174   0.19820   0.00000   0.00000
  57        7PZ         0.00000   0.22256   0.00307   0.00000   0.00000
  58        8PX         0.00000   0.00000   0.00000   0.08348   0.15487
  59        8PY         0.00000  -0.00018   0.02774   0.00000   0.00000
  60        8PZ         0.00000   0.03481   0.00085   0.00000   0.00000
  61        9PX        -0.00003   0.00000   0.00000  -0.00171   0.01043
  62        9PY         0.00000  -0.00033  -0.00047   0.00000   0.00000
  63        9PZ         0.00000  -0.00709  -0.00008   0.00000   0.00000
  64       10D 0        0.00000   0.01279   0.00024   0.00000   0.00000
  65       10D+1        0.00003   0.00000   0.00000   0.02387  -0.00016
  66       10D-1        0.00000   0.00072  -0.02880   0.00000   0.00000
  67       10D+2        0.00000   0.00950   0.00010   0.00000   0.00000
  68       10D-2       -0.01034   0.00000   0.00000  -0.00002   0.00012
  69       11D 0        0.00000   0.00891   0.00023   0.00000   0.00000
  70       11D+1        0.00010   0.00000   0.00000   0.03708   0.02343
  71       11D-1        0.00000   0.00117  -0.07212   0.00000   0.00000
  72       11D+2        0.00000   0.01841   0.00040   0.00000   0.00000
  73       11D-2       -0.03262   0.00000   0.00000   0.00000   0.00015
[...]
  74       12D 0       -0.05483   1.24739   0.00000   0.07562   0.47586
  75       12D+1        0.00000   0.00000   0.75646   0.00000   0.00000
  76       12D-1        7.05927   0.10666   0.00000  -2.32739   0.93474
  77       12D+2        0.00574   1.42377   0.00000   0.06706   0.23235
  78       12D-2        0.00000   0.00000  -0.00665   0.00000   0.00000
  79       13F 0        0.00077  -0.05482   0.00000   0.00128   0.00904
  80       13F+1        0.00000   0.00000  -0.09444   0.00000   0.00000
  81       13F-1       -0.02200   0.00021   0.00000  -0.07683  -0.02112
  82       13F+2        0.00035  -0.03902   0.00000  -0.00060  -0.00161
  83       13F-2        0.00000   0.00000  -0.00045   0.00000   0.00000
  84       13F+3        0.00000   0.00000   0.03926   0.00000   0.00000
  85       13F-3       -0.00705  -0.00032   0.00000   0.01013   0.01858
  86       14F 0       -0.00804   0.10907   0.00000  -0.00139  -0.00859
  87       14F+1        0.00000   0.00000  -0.17506   0.00000   0.00000
  88       14F-1        0.43696   0.00158   0.00000  -0.18500  -0.20569
  89       14F+2       -0.01111   0.26320   0.00000   0.00397   0.03442
  90       14F-2        0.00000   0.00000  -0.00038   0.00000   0.00000
  91       14F+3        0.00000   0.00000   0.01166   0.00000   0.00000
  92       14F-3        0.19447   0.00458   0.00000  -0.18991  -0.10470
  93 3   Cl 1S          0.02866  -0.01417   0.00000  -0.01213   0.00997
  94        2S          0.45922  -0.21356   0.00000  -0.15728   0.17416
  95        3S          1.15408  -0.55758   0.00000  -0.46207   0.40714
  96        4S         -0.22917   0.09250   0.00000  -0.01486  -0.15118
  97        5S         -6.67815   1.57801   0.00000   3.63438  -1.03064
  98        6S         -2.88037   1.37446   0.00000  12.91469   2.21311
  99        7PX         0.00000   0.00000  -0.01691   0.00000   0.00000
 100        7PY         0.00707   0.00292   0.00000  -0.01301  -0.00203
 101        7PZ        -0.01047  -0.00823   0.00000   0.00086   0.00226
 102        8PX         0.00000   0.00000  -0.21487   0.00000   0.00000
 103        8PY         0.00553   0.04348   0.00000  -0.21777   0.05037
 104        8PZ        -0.26863  -0.10120   0.00000  -0.00161   0.06839
 105        9PX         0.00000   0.00000   0.06567   0.00000   0.00000
 106        9PY        -0.02007  -0.02682   0.00000   0.04852   0.01011
 107        9PZ         0.04322   0.01667   0.00000  -0.00673  -0.00773
 108       10PX         0.00000   0.00000   0.91664   0.00000   0.00000
 109       10PY        -3.31025   0.33817   0.00000   4.74785  -0.44888
 110       10PZ        -1.09579   1.84496   0.00000   3.47149   0.21493
 111       11PX         0.00000   0.00000  -2.24802   0.00000   0.00000
 112       11PY        -0.48132  -0.67889   0.00000   2.34637  -2.78708
 113       11PZ         0.31122  -2.02772   0.00000   1.53805   0.55819
 114       12D 0        0.00778  -0.04158   0.00000  -0.02164   0.00292
 115       12D+1        0.00000   0.00000  -0.02682   0.00000   0.00000
 116       12D-1        0.05125  -0.08316   0.00000   0.01782  -0.01298
 117       12D+2       -0.01126   0.06979   0.00000  -0.03394   0.05858
 118       12D-2        0.00000   0.00000  -0.01003   0.00000   0.00000
 119       13D 0       -0.11884   0.16846   0.00000   0.12610   0.00697
 120       13D+1        0.00000   0.00000   0.08366   0.00000   0.00000
 121       13D-1       -0.37849   0.36180   0.00000   0.05480   0.12658
 122       13D+2        0.12505  -0.27933   0.00000   0.07478  -0.25902
 123       13D-2        0.00000   0.00000   0.03620   0.00000   0.00000
 124       14D 0        0.57197   0.25790   0.00000   0.05867   0.30275
 125       14D+1        0.00000   0.00000  -0.08418   0.00000   0.00000
 126       14D-1       -0.18705   0.11141   0.00000   1.57288  -0.08628
 127       14D+2        0.25057   0.38028   0.00000  -1.06495   0.74942
 128       14D-2        0.00000   0.00000   0.18540   0.00000   0.00000
 129       15F 0       -0.03435  -0.00041   0.00000   0.00855   0.01393
 130       15F+1        0.00000   0.00000  -0.00469   0.00000   0.00000
 131       15F-1       -0.00390  -0.04255   0.00000  -0.04677  -0.00246
 132       15F+2       -0.00213   0.03064   0.00000   0.01293   0.00355
 133       15F-2        0.00000   0.00000  -0.01622   0.00000   0.00000
 134       15F+3        0.00000   0.00000   0.04397   0.00000   0.00000
 135       15F-3        0.03184  -0.00042   0.00000  -0.00805   0.01029
 136       16F 0        0.13824   0.00285   0.00000  -0.04002  -0.02705
 137       16F+1        0.00000   0.00000  -0.00193   0.00000   0.00000
 138       16F-1       -0.05756   0.17985   0.00000   0.19014   0.05199
 139       16F+2        0.10083  -0.13348   0.00000  -0.11504  -0.02529
 140       16F-2        0.00000   0.00000   0.03542   0.00000   0.00000
 141       16F+3        0.00000   0.00000  -0.10514   0.00000   0.00000
 142       16F-3       -0.03196  -0.03763   0.00000  -0.02465   0.00397
 143 4   Cl 1S         -0.02901  -0.01529   0.00000   0.01216  -0.00746
 144        2S         -0.46480  -0.23012   0.00000   0.15885  -0.13073
 145        3S         -1.16836  -0.60155   0.00000   0.46405  -0.30479
 146        4S          0.23005   0.09713   0.00000   0.01122   0.11769
 147        5S          6.88898   1.87613   0.00000  -3.65459   0.77191
 148        6S          2.99501   1.72335   0.00000 -12.72161  -0.63919
 149        7PX         0.00000   0.00000  -0.01683   0.00000   0.00000
 150        7PY         0.00668  -0.00325   0.00000  -0.01286  -0.00039
 151        7PZ         0.01122  -0.00771   0.00000  -0.00164  -0.00749
 152        8PX         0.00000   0.00000  -0.21472   0.00000   0.00000
 153        8PY        -0.00942  -0.05083   0.00000  -0.21663   0.07703
 154        8PZ         0.28711  -0.09116   0.00000  -0.01052  -0.15150
 155        9PX         0.00000   0.00000   0.06529   0.00000   0.00000
 156        9PY        -0.01939   0.02833   0.00000   0.04850   0.00418
 157        9PZ        -0.04517   0.01427   0.00000   0.00921   0.02721
 158       10PX         0.00000   0.00000   0.92653   0.00000   0.00000
 159       10PY        -3.42465  -0.52214   0.00000   4.75183  -0.23808
 160       10PZ         1.10681   1.98191   0.00000  -3.39655   0.24873
 161       11PX         0.00000   0.00000  -2.25180   0.00000   0.00000
 162       11PY        -0.48345   0.61394   0.00000   2.33184  -3.10772
 163       11PZ        -0.26923  -2.01889   0.00000  -1.59619  -0.86803
 164       12D 0       -0.00646  -0.04270   0.00000   0.02090  -0.00841
 165       12D+1        0.00000   0.00000  -0.02654   0.00000   0.00000
 166       12D-1        0.05073   0.08403   0.00000   0.01953  -0.01605
 167       12D+2        0.01104   0.06916   0.00000   0.03594  -0.05756
 168       12D-2        0.00000   0.00000   0.00981   0.00000   0.00000
 169       13D 0        0.11475   0.17478   0.00000  -0.12484   0.01408
 170       13D+1        0.00000   0.00000   0.08244   0.00000   0.00000
 171       13D-1       -0.38729  -0.37445   0.00000   0.04658   0.14434
 172       13D+2       -0.13112  -0.28335   0.00000  -0.08347   0.26490
 173       13D-2        0.00000   0.00000  -0.03505   0.00000   0.00000
 174       14D 0       -0.58417   0.25306   0.00000  -0.04636  -0.22371
 175       14D+1        0.00000   0.00000  -0.07940   0.00000   0.00000
 176       14D-1       -0.18549  -0.15170   0.00000   1.56862  -0.14014
 177       14D+2       -0.26700   0.35470   0.00000   1.08351  -0.61515
 178       14D-2        0.00000   0.00000  -0.19029   0.00000   0.00000
 179       15F 0        0.03329  -0.00020   0.00000  -0.00839  -0.01284
 180       15F+1        0.00000   0.00000  -0.00491   0.00000   0.00000
 181       15F-1       -0.00589   0.04297   0.00000  -0.04698  -0.00722
 182       15F+2        0.00077   0.02910   0.00000  -0.01218  -0.00284
 183       15F-2        0.00000   0.00000   0.01590   0.00000   0.00000
 184       15F+3        0.00000   0.00000   0.04328   0.00000   0.00000
 185       15F-3        0.03208   0.00239   0.00000  -0.00776   0.01076
 186       16F 0       -0.13745   0.00089   0.00000   0.03813   0.02471
 187       16F+1        0.00000   0.00000  -0.00138   0.00000   0.00000
 188       16F-1       -0.05209  -0.18442   0.00000   0.18893   0.05727
 189       16F+2       -0.09856  -0.13509   0.00000   0.11132   0.02965
 190       16F-2        0.00000   0.00000  -0.03499   0.00000   0.00000
 191       16F+3        0.00000   0.00000  -0.10399   0.00000   0.00000
 192       16F-3       -0.03181   0.03568   0.00000  -0.02482  -0.00998
                         191       192
     Eigenvalues --     0.00000   0.00000
   1 1   O  1S          0.07051   0.07104
   2        2S          0.37688   0.36370
   3        3S          0.01052  -0.01464
   4        4S         -4.58056  -2.98225
   5        5S         -9.34245  -8.57158
   6        6PX         0.00000   0.00000
   7        6PY        -0.00097   0.00000
   8        6PZ        -0.00959   0.00437
   9        7PX         0.00000   0.00000
  10        7PY        -0.00284   0.00027
  11        7PZ         0.15069  -0.01014
  12        8PX         0.00000   0.00000
  13        8PY        -0.11549   0.00518
  14        8PZ         2.71903   2.15653
  15        9PX         0.00000   0.00000
  16        9PY         0.60522  -0.01437
  17        9PZ        -1.35416  -0.04429
  18       10D 0        0.03795   0.04128
  19       10D+1        0.00000   0.00000
  20       10D-1       -0.00588   0.00014
  21       10D+2       -0.02770  -0.01407
  22       10D-2        0.00000   0.00000
  23       11D 0       -0.31324  -0.21905
  24       11D+1        0.00000   0.00000
  25       11D-1        0.03114  -0.00112
  26       11D+2        0.07905   0.04337
  27       11D-2        0.00000   0.00000
  28       12D 0       -0.40594  -0.30840
  29       12D+1        0.00000   0.00000
  30       12D-1        0.01594  -0.00141
  31       12D+2       -0.44012  -0.13252
  32       12D-2        0.00000   0.00000
  33       13F 0        0.00929  -0.00947
  34       13F+1        0.00000   0.00000
  35       13F-1        0.00341  -0.00014
  36       13F+2       -0.01456  -0.00615
  37       13F-2        0.00000   0.00000
  38       13F+3        0.00000   0.00000
  39       13F-3       -0.00111  -0.00009
  40       14F 0        0.12734   0.11660
  41       14F+1        0.00000   0.00000
  42       14F-1       -0.02010   0.00102
  43       14F+2        0.06701   0.02606
  44       14F-2        0.00000   0.00000
  45       14F+3        0.00000   0.00000
  46       14F-3        0.00137   0.00026
  47 2   C  1S          0.20482   0.02852
  48        2S          1.13276   0.24518
  49        3S         -0.04772   0.10492
  50        4S          6.50653  12.18296
  51        5S         -2.33713  19.26959
  52        6PX         0.00000   0.00000
  53        6PY         0.00035   0.00038
  54        6PZ         0.01950   0.00928
  55        7PX         0.00000   0.00000
  56        7PY         0.02441  -0.00161
  57        7PZ         1.04006   0.60442
  58        8PX         0.00000   0.00000
  59        8PY        -0.13209   0.03402
  60        8PZ         2.80357  -0.66605
  61        9PX         0.00000   0.00000
  62        9PY        -1.32500   0.04566
  63        9PZ         7.15378  -0.49955
  64       10D 0        0.06171   0.04652
  65       10D+1        0.00000   0.00000
  66       10D-1        0.00047   0.00012
  67       10D+2        0.01295  -0.02151
  68       10D-2        0.00000   0.00000
  69       11D 0        0.50676   0.20954
  70       11D+1        0.00000   0.00000
  71       11D-1        0.08857  -0.00309
  72       11D+2       -0.06113  -0.02577
  73       11D-2        0.00000   0.00000
  74       12D 0        3.18128   1.63445
  75       12D+1        0.00000   0.00000
  76       12D-1       -0.12779  -0.00394
  77       12D+2        1.50273  -0.74163
  78       12D-2        0.00000   0.00000
  79       13F 0        0.06063  -0.01143
  80       13F+1        0.00000   0.00000
  81       13F-1        0.00425  -0.00035
  82       13F+2       -0.01126   0.00042
  83       13F-2        0.00000   0.00000
  84       13F+3        0.00000   0.00000
  85       13F-3       -0.00302   0.00040
  86       14F 0       -0.04817  -0.04220
  87       14F+1        0.00000   0.00000
  88       14F-1        0.03806  -0.00201
  89       14F+2        0.23399   0.02088
  90       14F-2        0.00000   0.00000
  91       14F+3        0.00000   0.00000
  92       14F-3        0.01870  -0.00120
  93 3   Cl 1S          0.00660   0.00021
  94        2S          0.11234  -0.01787
  95        3S          0.26780  -0.00472
  96        4S         -0.08041   0.06836
  97        5S         -0.73432  -0.48224
  98        6S          4.23469 -10.06007
  99        7PX         0.00000   0.00000
 100        7PY        -0.00449   0.01043
 101        7PZ        -0.01762   0.00569
 102        8PX         0.00000   0.00000
 103        8PY        -0.08586   0.18169
 104        8PZ        -0.28092   0.10239
 105        9PX         0.00000   0.00000
 106        9PY         0.01593  -0.03694
 107        9PZ         0.06577  -0.02056
 108       10PX         0.00000   0.00000
 109       10PY        -0.79804  -2.83159
 110       10PZ         1.43932  -1.30189
 111       11PX         0.00000   0.00000
 112       11PY         1.31111  -1.64237
 113       11PZ        -1.19192  -1.32565
 114       12D 0       -0.01884   0.00184
 115       12D+1        0.00000   0.00000
 116       12D-1        0.00981  -0.00223
 117       12D+2       -0.00576  -0.02259
 118       12D-2        0.00000   0.00000
 119       13D 0        0.07271   0.00944
 120       13D+1        0.00000   0.00000
 121       13D-1       -0.07076  -0.00283
 122       13D+2        0.06111   0.09860
 123       13D-2        0.00000   0.00000
 124       14D 0        0.23283   0.13684
 125       14D+1        0.00000   0.00000
 126       14D-1        0.14152  -0.74901
 127       14D+2        0.37122   0.63671
 128       14D-2        0.00000   0.00000
 129       15F 0        0.00016  -0.01643
 130       15F+1        0.00000   0.00000
 131       15F-1        0.01539   0.00781
 132       15F+2        0.00014  -0.04099
 133       15F-2        0.00000   0.00000
 134       15F+3        0.00000   0.00000
 135       15F-3       -0.00461  -0.03452
 136       16F 0        0.00232   0.05438
 137       16F+1        0.00000   0.00000
 138       16F-1       -0.02220  -0.01964
 139       16F+2        0.02454   0.13696
 140       16F-2        0.00000   0.00000
 141       16F+3        0.00000   0.00000
 142       16F-3        0.05068   0.11658
 143 4   Cl 1S          0.00897   0.00035
 144        2S          0.15530  -0.01592
 145        3S          0.36566   0.00069
 146        4S         -0.12235   0.06796
 147        5S         -0.94880  -0.53439
 148        6S          5.09784 -10.20839
 149        7PX         0.00000   0.00000
 150        7PY         0.00561  -0.01054
 151        7PZ        -0.01622   0.00560
 152        8PX         0.00000   0.00000
 153        8PY         0.07890  -0.18274
 154        8PZ        -0.24983   0.10128
 155        9PX         0.00000   0.00000
 156        9PY        -0.02079   0.03748
 157        9PZ         0.06057  -0.02022
 158       10PX         0.00000   0.00000
 159       10PY         0.78378   2.87723
 160       10PZ         1.54983  -1.33735
 161       11PX         0.00000   0.00000
 162       11PY        -0.44944   1.62445
 163       11PZ        -0.91920  -1.34913
 164       12D 0       -0.01741   0.00187
 165       12D+1        0.00000   0.00000
 166       12D-1       -0.00593   0.00199
 167       12D+2        0.01152  -0.02292
 168       12D-2        0.00000   0.00000
 169       13D 0        0.07555   0.00872
 170       13D+1        0.00000   0.00000
 171       13D-1        0.02810   0.00435
 172       13D+2       -0.01682   0.10020
 173       13D-2        0.00000   0.00000
 174       14D 0        0.32407   0.13036
 175       14D+1        0.00000   0.00000
 176       14D-1       -0.15491   0.76053
 177       14D+2        0.55267   0.63758
 178       14D-2        0.00000   0.00000
 179       15F 0        0.00473  -0.01634
 180       15F+1        0.00000   0.00000
 181       15F-1       -0.01252  -0.00826
 182       15F+2        0.00227  -0.04123
 183       15F-2        0.00000   0.00000
 184       15F+3        0.00000   0.00000
 185       15F-3        0.00052   0.03445
 186       16F 0       -0.00687   0.05354
 187       16F+1        0.00000   0.00000
 188       16F-1       -0.00097   0.02173
 189       16F+2        0.01128   0.13751
 190       16F-2        0.00000   0.00000
 191       16F+3        0.00000   0.00000
 192       16F-3       -0.04731  -0.11602
          Condensed to atoms (all electrons):
              1          2          3          4
     1  O    8.032560   0.434816  -0.073013  -0.074273
     2  C    0.434816   4.961550   0.139572   0.135431
     3  Cl  -0.073013   0.139572  17.041249  -0.099360
     4  Cl  -0.074273   0.135431  -0.099360  17.038296
 Mulliken atomic charges:
              1
     1  O   -0.320089
     2  C    0.328631
     3  Cl  -0.008448
     4  Cl  -0.000095
 Sum of Mulliken atomic charges =   0.00000
 Mulliken charges with hydrogens summed into heavy atoms:
              1
     1  O   -0.320089
     2  C    0.328631
     3  Cl  -0.008448
     4  Cl  -0.000095
 Sum of Mulliken charges with hydrogens summed into heavy atoms =   0.00000
 Electronic spatial extent (au):  <R**2>=            615.4825
 Charge=              0.0000 electrons
 Dipole moment (field-independent basis, Debye):
    X=              0.0000    Y=              0.0372    Z=             -1.2234  Tot=              1.2240
 Quadrupole moment (field-independent basis, Debye-Ang):
   XX=            -35.1001   YY=            -34.3873   ZZ=            -36.3112
   XY=              0.0000   XZ=              0.0000   YZ=             -0.0571
 Traceless Quadrupole moment (field-independent basis, Debye-Ang):
   XX=              0.1661   YY=              0.8789   ZZ=             -1.0450
   XY=              0.0000   XZ=              0.0000   YZ=             -0.0571
 Octapole moment (field-independent basis, Debye-Ang**2):
  XXX=              0.0000  YYY=              0.4896  ZZZ=            106.3061  XYY=              0.0000
  XXY=              0.1640  XXZ=             36.0924  XZZ=              0.0000  YZZ=              0.2467
  YYZ=             29.7044  XYZ=              0.0000
 Hexadecapole moment (field-independent basis, Debye-Ang**3):
 XXXX=            -37.1688 YYYY=           -331.2414 ZZZZ=           -383.3655 XXXY=              0.0000
 XXXZ=              0.0000 YYYX=              0.0000 YYYZ=             -0.6712 ZZZX=              0.0000
 ZZZY=             -0.8432 XXYY=            -65.6520 XXZZ=            -71.1263 YYZZ=           -107.2567
 XXYZ=             -0.2401 YYXZ=              0.0000 ZZXY=              0.0000
 N-N= 1.913777389275D+02 E-N=-2.836972162803D+03  KE= 1.032406604887D+03
 1\1\GINC-TRAPISTA\SP\RQCISD-FC\Aug-CC-pVTZ\C1Cl2O1\BRUNS\27-Nov-2021\0
 \\# qcisd/aug-cc-pvtz nosymm density=current output=wfn\\cl2co-wavefun
 ction\\0,1\O,0,0.,0.,0.683397\C,0,0.,0.,-0.494687\Cl,0,0.,-1.45687,-1.
 469805\Cl,0,0.,1.44687,-1.469805\\Version=EM64L-G09RevB.01\HF=-1031.80
 26124\MP2=-1032.5820992\MP3=-1032.6011565\MP4D=-1032.6208604\MP4DQ=-10
 32.5983081\MP4SDQ=-1032.6073187\QCISD=-1032.6055813\RMSD=5.212e-09\Dip
 ole=0.,0.0146247,-0.4813414\Quadrupole=0.1234937,0.6534371,-0.7769308,
 0.,0.,-0.0424476\PG=CS [SG(C1Cl2O1)]\\@

 Writing a WFN file to GAUSSIAN.wfn.


 Standing in the middle of the road is very dangerous;
 you get knocked down by the traffic from both sides.
                                -- Margaret Thatcher
 Job cpu time:  0 days  2 hours  2 minutes 53.0 seconds.
 File lengths (MBytes):  RWF=  18183 Int=      0 D2E=      0 Chk=      3 Scr=      1
 Normal termination of Gaussian 09 at Sat Nov 27 15:59:21 2021.
